Created by Ilya Fedorov for Hydrogen research

2000 atoms
2 atom types

0.000000 26.540779 xlo xhi
0.000000 26.540779 ylo yhi
0.000000 26.540779 zlo zhi

Masses

1 1.007940
2 1.000000

Atoms

1	1	1.000000	0	0.000000	0.130660	-0.377961	13.844219
2	1	1.000000	0	0.000000	-0.130660	0.377961	12.696560
3	2	0.000000	1	1.823572	0.000000	0.000000	13.270389
4	2	0.000000	-1	1.823572	0.000000	0.000000	13.270389
5	1	1.000000	0	0.000000	0.089973	-0.207763	16.586242
6	1	1.000000	0	0.000000	-0.089973	0.207763	15.262692
7	2	0.000000	1	1.823572	0.000000	0.000000	15.924467
8	2	0.000000	-1	1.823572	0.000000	0.000000	15.924467
9	1	1.000000	0	0.000000	0.196389	-0.380777	19.131399
10	1	1.000000	0	0.000000	-0.196389	0.380777	18.025692
11	2	0.000000	1	1.823572	0.000000	0.000000	18.578545
12	2	0.000000	-1	1.823572	0.000000	0.000000	18.578545
13	1	1.000000	0	0.000000	0.205014	0.658981	21.346286
14	1	1.000000	0	0.000000	-0.205014	-0.658981	21.118960
15	2	0.000000	1	1.823572	0.000000	0.000000	21.232623
16	2	0.000000	-1	1.823572	0.000000	0.000000	21.232623
17	1	1.000000	0	0.000000	-0.056182	0.096214	24.577203
18	1	1.000000	0	0.000000	0.056182	-0.096214	23.196199
19	2	0.000000	1	1.823572	0.000000	0.000000	23.886701
20	2	0.000000	-1	1.823572	0.000000	0.000000	23.886701
21	1	1.000000	0	0.000000	-0.041414	2.669452	0.698036
22	1	1.000000	0	0.000000	0.041414	2.638703	-0.698036
23	2	0.000000	1	1.823572	0.000000	2.654078	0.000000
24	2	0.000000	-1	1.823572	0.000000	2.654078	0.000000
25	1	1.000000	0	0.000000	-0.324066	2.104844	2.941358
26	1	1.000000	0	0.000000	0.324066	3.203311	2.366798
27	2	0.000000	1	1.823572	0.000000	2.654078	2.654078
28	2	0.000000	-1	1.823572	0.000000	2.654078	2.654078
29	1	1.000000	0	0.000000	-0.263829	2.896396	5.908891
30	1	1.000000	0	0.000000	0.263829	2.411760	4.707421
31	2	0.000000	1	1.823572	0.000000	2.654078	5.308156
32	2	0.000000	-1	1.823572	0.000000	2.654078	5.308156
33	1	1.000000	0	0.000000	0.431319	2.820366	8.487132
34	1	1.000000	0	0.000000	-0.431319	2.487790	7.437335
35	2	0.000000	1	1.823572	0.000000	2.654078	7.962234
36	2	0.000000	-1	1.823572	0.000000	2.654078	7.962234
37	1	1.000000	0	0.000000	-0.186030	2.393315	24.508474
38	1	1.000000	0	0.000000	0.186030	2.914841	23.264928
39	2	0.000000	1	1.823572	0.000000	2.654078	23.886701
40	2	0.000000	-1	1.823572	0.000000	2.654078	23.886701
41	1	1.000000	0	0.000000	0.242766	4.933463	13.808791
42	1	1.000000	0	0.000000	-0.242766	5.682849	12.731988
43	2	0.000000	1	1.823572	0.000000	5.308156	13.270389
44	2	0.000000	-1	1.823572	0.000000	5.308156	13.270389
45	1	1.000000	0	0.000000	0.022093	5.537809	3.314364
46	1	1.000000	0	0.000000	-0.022093	5.078502	1.993792
47	2	0.000000	1	1.823572	0.000000	5.308156	2.654078
48	2	0.000000	-1	1.823572	0.000000	5.308156	2.654078
49	1	1.000000	0	0.000000	-0.057502	5.330586	6.004860
50	1	1.000000	0	0.000000	0.057502	5.285725	4.611452
51	2	0.000000	1	1.823572	0.000000	5.308156	5.308156
52	2	0.000000	-1	1.823572	0.000000	5.308156	5.308156
53	1	1.000000	0	0.000000	-0.124227	5.665463	8.550541
54	1	1.000000	0	0.000000	0.124227	4.950848	7.373926
55	2	0.000000	1	1.823572	0.000000	5.308156	7.962234
56	2	0.000000	-1	1.823572	0.000000	5.308156	7.962234
57	1	1.000000	0	0.000000	-0.153460	4.730363	24.249760
58	1	1.000000	0	0.000000	0.153460	5.885948	23.523641
59	2	0.000000	1	1.823572	0.000000	5.308156	23.886701
60	2	0.000000	-1	1.823572	0.000000	5.308156	23.886701
61	1	1.000000	0	0.000000	-0.328314	8.288054	13.795039
62	1	1.000000	0	0.000000	0.328314	7.636413	12.745740
63	2	0.000000	1	1.823572	0.000000	7.962234	13.270389
64	2	0.000000	-1	1.823572	0.000000	7.962234	13.270389
65	1	1.000000	0	0.000000	0.670943	8.126267	2.764235
66	1	1.000000	0	0.000000	-0.670943	7.798200	2.543921
67	2	0.000000	1	1.823572	0.000000	7.962234	2.654078
68	2	0.000000	-1	1.823572	0.000000	7.962234	2.654078
69	1	1.000000	0	0.000000	0.679858	7.931390	18.739941
70	1	1.000000	0	0.000000	-0.679858	7.993077	18.417150
71	2	0.000000	1	1.823572	0.000000	7.962234	18.578545
72	2	0.000000	-1	1.823572	0.000000	7.962234	18.578545
73	1	1.000000	0	0.000000	-0.033337	7.951733	8.660793
74	1	1.000000	0	0.000000	0.033337	7.972735	7.263675
75	2	0.000000	1	1.823572	0.000000	7.962234	7.962234
76	2	0.000000	-1	1.823572	0.000000	7.962234	7.962234
77	1	1.000000	0	0.000000	-0.052867	7.450393	11.090052
78	1	1.000000	0	0.000000	0.052867	8.474074	10.142571
79	2	0.000000	1	1.823572	0.000000	7.962234	10.616311
80	2	0.000000	-1	1.823572	0.000000	7.962234	10.616311
81	1	1.000000	0	0.000000	0.612591	10.379603	13.511030
82	1	1.000000	0	0.000000	-0.612591	10.853020	13.029748
83	2	0.000000	1	1.823572	0.000000	10.616311	13.270389
84	2	0.000000	-1	1.823572	0.000000	10.616311	13.270389
85	1	1.000000	0	0.000000	-0.395801	10.341314	3.160955
86	1	1.000000	0	0.000000	0.395801	10.891309	2.147201
87	2	0.000000	1	1.823572	0.000000	10.616311	2.654078
88	2	0.000000	-1	1.823572	0.000000	10.616311	2.654078
89	1	1.000000	0	0.000000	0.696047	10.572015	18.631108
90	1	1.000000	0	0.000000	-0.696047	10.660608	18.525982
91	2	0.000000	1	1.823572	0.000000	10.616311	18.578545
92	2	0.000000	-1	1.823572	0.000000	10.616311	18.578545
93	1	1.000000	0	0.000000	0.229428	11.263950	21.363519
94	1	1.000000	0	0.000000	-0.229428	9.968673	21.101727
95	2	0.000000	1	1.823572	0.000000	10.616311	21.232623
96	2	0.000000	-1	1.823572	0.000000	10.616311	21.232623
97	1	1.000000	0	0.000000	0.648134	10.357031	23.930323
98	1	1.000000	0	0.000000	-0.648134	10.875592	23.843079
99	2	0.000000	1	1.823572	0.000000	10.616311	23.886701
100	2	0.000000	-1	1.823572	0.000000	10.616311	23.886701
101	1	1.000000	0	0.000000	-0.095459	13.161961	0.684352
102	1	1.000000	0	0.000000	0.095459	13.378817	-0.684352
103	2	0.000000	1	1.823572	0.000000	13.270389	0.000000
104	2	0.000000	-1	1.823572	0.000000	13.270389	0.000000
105	1	1.000000	0	0.000000	0.033459	13.562668	16.559022
106	1	1.000000	0	0.000000	-0.033459	12.978111	15.289912
107	2	0.000000	1	1.823572	0.000000	13.270389	15.924467
108	2	0.000000	-1	1.823572	0.000000	13.270389	15.924467
109	1	1.000000	0	0.000000	-0.632445	13.555138	18.668757
110	1	1.000000	0	0.000000	0.632445	12.985640	18.488333
111	2	0.000000	1	1.823572	0.000000	13.270389	18.578545
112	2	0.000000	-1	1.823572	0.000000	13.270389	18.578545
113	1	1.000000	0	0.000000	-0.060141	12.684110	8.338884
114	1	1.000000	0	0.000000	0.060141	13.856669	7.585583
115	2	0.000000	1	1.823572	0.000000	13.270389	7.962234
116	2	0.000000	-1	1.823572	0.000000	13.270389	7.962234
117	1	1.000000	0	0.000000	-0.071185	13.179542	24.576546
118	1	1.000000	0	0.000000	0.071185	13.361237	23.196856
119	2	0.000000	1	1.823572	0.000000	13.270389	23.886701
120	2	0.000000	-1	1.823572	0.000000	13.270389	23.886701
121	1	1.000000	0	0.000000	-0.108025	15.818346	13.953233
122	1	1.000000	0	0.000000	0.108025	16.030588	12.587546
123	2	0.000000	1	1.823572	0.000000	15.924467	13.270389
124	2	0.000000	-1	1.823572	0.000000	15.924467	13.270389
125	1	1.000000	0	0.000000	0.214676	16.062081	3.305371
126	1	1.000000	0	0.000000	-0.214676	15.786853	2.002785
127	2	0.000000	1	1.823572	0.000000	15.924467	2.654078
128	2	0.000000	-1	1.823572	0.000000	15.924467	2.654078
129	1	1.000000	0	0.000000	-0.156114	16.120633	19.231503
130	1	1.000000	0	0.000000	0.156114	15.728301	17.925587
131	2	0.000000	1	1.823572	0.000000	15.924467	18.578545
132	2	0.000000	-1	1.823572	0.000000	15.924467	18.578545
133	1	1.000000	0	0.000000	0.291157	15.808962	21.857997
134	1	1.000000	0	0.000000	-0.291157	16.039972	20.607249
135	2	0.000000	1	1.823572	0.000000	15.924467	21.232623
136	2	0.000000	-1	1.823572	0.000000	15.924467	21.232623
137	1	1.000000	0	0.000000	-0.190653	16.388179	11.103989
138	1	1.000000	0	0.000000	0.190653	15.460756	10.128634
139	2	0.000000	1	1.823572	0.000000	15.924467	10.616311
140	2	0.000000	-1	1.823572	0.000000	15.924467	10.616311
141	1	1.000000	0	0.000000	0.261242	19.156005	13.566192
142	1	1.000000	0	0.000000	-0.261242	18.001085	12.974586
143	2	0.000000	1	1.823572	0.000000	18.578545	13.270389
144	2	0.000000	-1	1.823572	0.000000	18.578545	13.270389
145	1	1.000000	0	0.000000	-0.575636	18.212365	2.808224
146	1	1.000000	0	0.000000	0.575636	18.944725	2.499932
147	2	0.000000	1	1.823572	0.000000	18.578545	2.654078
148	2	0.000000	-1	1.823572	0.000000	18.578545	2.654078
149	1	1.000000	0	0.000000	-0.156337	19.174355	5.639480
150	1	1.000000	0	0.000000	0.156337	17.982735	4.976832
151	2	0.000000	1	1.823572	0.000000	18.578545	5.308156
152	2	0.000000	-1	1.823572	0.000000	18.578545	5.308156
153	1	1.000000	0	0.000000	0.390596	18.102343	8.293704
154	1	1.000000	0	0.000000	-0.390596	19.054747	7.630764
155	2	0.000000	1	1.823572	0.000000	18.578545	7.962234
156	2	0.000000	-1	1.823572	0.000000	18.578545	7.962234
157	1	1.000000	0	0.000000	-0.302605	18.772519	24.486710
158	1	1.000000	0	0.000000	0.302605	18.384571	23.286692
159	2	0.000000	1	1.823572	0.000000	18.578545	23.886701
160	2	0.000000	-1	1.823572	0.000000	18.578545	23.886701
161	1	1.000000	0	0.000000	0.068320	20.588811	0.264661
162	1	1.000000	0	0.000000	-0.068320	21.876434	-0.264661
163	2	0.000000	1	1.823572	0.000000	21.232623	0.000000
164	2	0.000000	-1	1.823572	0.000000	21.232623	0.000000
165	1	1.000000	0	0.000000	0.070254	21.194383	3.348922
166	1	1.000000	0	0.000000	-0.070254	21.270863	1.959234
167	2	0.000000	1	1.823572	0.000000	21.232623	2.654078
168	2	0.000000	-1	1.823572	0.000000	21.232623	2.654078
169	1	1.000000	0	0.000000	-0.184570	21.901565	18.666046
170	1	1.000000	0	0.000000	0.184570	20.563681	18.491044
171	2	0.000000	1	1.823572	0.000000	21.232623	18.578545
172	2	0.000000	-1	1.823572	0.000000	21.232623	18.578545
173	1	1.000000	0	0.000000	-0.274600	21.697443	21.677307
174	1	1.000000	0	0.000000	0.274600	20.767803	20.787939
175	2	0.000000	1	1.823572	0.000000	21.232623	21.232623
176	2	0.000000	-1	1.823572	0.000000	21.232623	21.232623
177	1	1.000000	0	0.000000	0.677167	21.297503	24.049311
178	1	1.000000	0	0.000000	-0.677167	21.167743	23.724090
179	2	0.000000	1	1.823572	0.000000	21.232623	23.886701
180	2	0.000000	-1	1.823572	0.000000	21.232623	23.886701
181	1	1.000000	0	0.000000	-0.162457	23.656369	13.910515
182	1	1.000000	0	0.000000	0.162457	24.117033	12.630263
183	2	0.000000	1	1.823572	0.000000	23.886701	13.270389
184	2	0.000000	-1	1.823572	0.000000	23.886701	13.270389
185	1	1.000000	0	0.000000	-0.452631	23.898369	16.457567
186	1	1.000000	0	0.000000	0.452631	23.875032	15.391367
187	2	0.000000	1	1.823572	0.000000	23.886701	15.924467
188	2	0.000000	-1	1.823572	0.000000	23.886701	15.924467
189	1	1.000000	0	0.000000	0.000439	24.208155	19.199732
190	1	1.000000	0	0.000000	-0.000439	23.565246	17.957358
191	2	0.000000	1	1.823572	0.000000	23.886701	18.578545
192	2	0.000000	-1	1.823572	0.000000	23.886701	18.578545
193	1	1.000000	0	0.000000	0.359082	24.002473	21.821574
194	1	1.000000	0	0.000000	-0.359082	23.770929	20.643672
195	2	0.000000	1	1.823572	0.000000	23.886701	21.232623
196	2	0.000000	-1	1.823572	0.000000	23.886701	21.232623
197	1	1.000000	0	0.000000	0.291107	23.275731	10.792887
198	1	1.000000	0	0.000000	-0.291107	24.497671	10.439736
199	2	0.000000	1	1.823572	0.000000	23.886701	10.616311
200	2	0.000000	-1	1.823572	0.000000	23.886701	10.616311
201	1	1.000000	0	0.000000	3.181470	-0.433697	0.151562
202	1	1.000000	0	0.000000	2.126685	0.433697	-0.151562
203	2	0.000000	1	1.823572	2.654078	0.000000	0.000000
204	2	0.000000	-1	1.823572	2.654078	0.000000	0.000000
205	1	1.000000	0	0.000000	2.387978	0.478899	3.088881
206	1	1.000000	0	0.000000	2.920177	-0.478899	2.219275
207	2	0.000000	1	1.823572	2.654078	0.000000	2.654078
208	2	0.000000	-1	1.823572	2.654078	0.000000	2.654078
209	1	1.000000	0	0.000000	2.671584	0.005547	6.007348
210	1	1.000000	0	0.000000	2.636572	-0.005547	4.608964
211	2	0.000000	1	1.823572	2.654078	0.000000	5.308156
212	2	0.000000	-1	1.823572	2.654078	0.000000	5.308156
213	1	1.000000	0	0.000000	3.133692	0.398130	8.279517
214	1	1.000000	0	0.000000	2.174463	-0.398130	7.644951
215	2	0.000000	1	1.823572	2.654078	0.000000	7.962234
216	2	0.000000	-1	1.823572	2.654078	0.000000	7.962234
217	1	1.000000	0	0.000000	2.349771	0.613026	24.030934
218	1	1.000000	0	0.000000	2.958385	-0.613026	23.742468
219	2	0.000000	1	1.823572	2.654078	0.000000	23.886701
220	2	0.000000	-1	1.823572	2.654078	0.000000	23.886701
221	1	1.000000	0	0.000000	2.605279	2.673843	0.697448
222	1	1.000000	0	0.000000	2.702877	2.634312	-0.697448
223	2	0.000000	1	1.823572	2.654078	2.654078	0.000000
224	2	0.000000	-1	1.823572	2.654078	2.654078	0.000000
225	1	1.000000	0	0.000000	2.517586	2.958210	3.268960
226	1	1.000000	0	0.000000	2.790570	2.349946	2.039196
227	2	0.000000	1	1.823572	2.654078	2.654078	2.654078
228	2	0.000000	-1	1.823572	2.654078	2.654078	2.654078
229	1	1.000000	0	0.000000	2.092327	2.335357	5.576595
230	1	1.000000	0	0.000000	3.215828	2.972799	5.039717
231	2	0.000000	1	1.823572	2.654078	2.654078	5.308156
232	2	0.000000	-1	1.823572	2.654078	2.654078	5.308156
233	1	1.000000	0	0.000000	2.456551	2.753949	8.625721
234	1	1.000000	0	0.000000	2.851605	2.554206	7.298747
235	2	0.000000	1	1.823572	2.654078	2.654078	7.962234
236	2	0.000000	-1	1.823572	2.654078	2.654078	7.962234
237	1	1.000000	0	0.000000	2.786562	3.054176	11.174501
238	1	1.000000	0	0.000000	2.521594	2.253979	10.058122
239	2	0.000000	1	1.823572	2.654078	2.654078	10.616311
240	2	0.000000	-1	1.823572	2.654078	2.654078	10.616311
241	1	1.000000	0	0.000000	2.683248	4.963244	13.878165
242	1	1.000000	0	0.000000	2.624907	5.653067	12.662614
243	2	0.000000	1	1.823572	2.654078	5.308156	13.270389
244	2	0.000000	-1	1.823572	2.654078	5.308156	13.270389
245	1	1.000000	0	0.000000	2.759705	4.662421	16.171602
246	1	1.000000	0	0.000000	2.548450	5.953891	15.677333
247	2	0.000000	1	1.823572	2.654078	5.308156	15.924467
248	2	0.000000	-1	1.823572	2.654078	5.308156	15.924467
249	1	1.000000	0	0.000000	3.024062	4.748247	5.505184
250	1	1.000000	0	0.000000	2.284094	5.868065	5.111128
251	2	0.000000	1	1.823572	2.654078	5.308156	5.308156
252	2	0.000000	-1	1.823572	2.654078	5.308156	5.308156
253	1	1.000000	0	0.000000	2.586944	5.312334	21.928814
254	1	1.000000	0	0.000000	2.721212	5.303977	20.536432
255	2	0.000000	1	1.823572	2.654078	5.308156	21.232623
256	2	0.000000	-1	1.823572	2.654078	5.308156	21.232623
257	1	1.000000	0	0.000000	2.231428	5.486383	11.144335
258	1	1.000000	0	0.000000	3.076728	5.129929	10.088288
259	2	0.000000	1	1.823572	2.654078	5.308156	10.616311
260	2	0.000000	-1	1.823572	2.654078	5.308156	10.616311
261	1	1.000000	0	0.000000	2.132994	7.509138	13.381661
262	1	1.000000	0	0.000000	3.175162	8.415330	13.159117
263	2	0.000000	1	1.823572	2.654078	7.962234	13.270389
264	2	0.000000	-1	1.823572	2.654078	7.962234	13.270389
265	1	1.000000	0	0.000000	2.013951	7.709760	2.779381
266	1	1.000000	0	0.000000	3.294205	8.214707	2.528775
267	2	0.000000	1	1.823572	2.654078	7.962234	2.654078
268	2	0.000000	-1	1.823572	2.654078	7.962234	2.654078
269	1	1.000000	0	0.000000	2.138837	7.749352	5.730547
270	1	1.000000	0	0.000000	3.169319	8.175115	4.885764
271	2	0.000000	1	1.823572	2.654078	7.962234	5.308156
272	2	0.000000	-1	1.823572	2.654078	7.962234	5.308156
273	1	1.000000	0	0.000000	2.667545	7.953274	21.931869
274	1	1.000000	0	0.000000	2.640611	7.971193	20.533377
275	2	0.000000	1	1.823572	2.654078	7.962234	21.232623
276	2	0.000000	-1	1.823572	2.654078	7.962234	21.232623
277	1	1.000000	0	0.000000	2.595384	7.892218	11.309752
278	1	1.000000	0	0.000000	2.712772	8.032249	9.922871
279	2	0.000000	1	1.823572	2.654078	7.962234	10.616311
280	2	0.000000	-1	1.823572	2.654078	7.962234	10.616311
281	1	1.000000	0	0.000000	2.581768	10.674790	0.693223
282	1	1.000000	0	0.000000	2.726387	10.557833	-0.693223
283	2	0.000000	1	1.823572	2.654078	10.616311	0.000000
284	2	0.000000	-1	1.823572	2.654078	10.616311	0.000000
285	1	1.000000	0	0.000000	2.987426	10.733483	3.257697
286	1	1.000000	0	0.000000	2.320730	10.499140	2.050459
287	2	0.000000	1	1.823572	2.654078	10.616311	2.654078
288	2	0.000000	-1	1.823572	2.654078	10.616311	2.654078
289	1	1.000000	0	0.000000	2.583382	10.618901	6.004002
290	1	1.000000	0	0.000000	2.724774	10.613722	4.612310
291	2	0.000000	1	1.823572	2.654078	10.616311	5.308156
292	2	0.000000	-1	1.823572	2.654078	10.616311	5.308156
293	1	1.000000	0	0.000000	2.645357	10.165723	8.497117
294	1	1.000000	0	0.000000	2.662799	11.066900	7.427350
295	2	0.000000	1	1.823572	2.654078	10.616311	7.962234
296	2	0.000000	-1	1.823572	2.654078	10.616311	7.962234
297	1	1.000000	0	0.000000	2.138399	10.977425	24.191461
298	1	1.000000	0	0.000000	3.169756	10.255198	23.581940
299	2	0.000000	1	1.823572	2.654078	10.616311	23.886701
300	2	0.000000	-1	1.823572	2.654078	10.616311	23.886701
301	1	1.000000	0	0.000000	2.411491	13.189125	13.921353
302	1	1.000000	0	0.000000	2.896664	13.351653	12.619425
303	2	0.000000	1	1.823572	2.654078	13.270389	13.270389
304	2	0.000000	-1	1.823572	2.654078	13.270389	13.270389
305	1	1.000000	0	0.000000	2.634617	13.273465	16.623623
306	1	1.000000	0	0.000000	2.673539	13.267314	15.225312
307	2	0.000000	1	1.823572	2.654078	13.270389	15.924467
308	2	0.000000	-1	1.823572	2.654078	13.270389	15.924467
309	1	1.000000	0	0.000000	2.599735	13.795026	5.767513
310	1	1.000000	0	0.000000	2.708420	12.745753	4.848798
311	2	0.000000	1	1.823572	2.654078	13.270389	5.308156
312	2	0.000000	-1	1.823572	2.654078	13.270389	5.308156
313	1	1.000000	0	0.000000	2.994515	13.300231	8.572494
314	1	1.000000	0	0.000000	2.313640	13.240547	7.351973
315	2	0.000000	1	1.823572	2.654078	13.270389	7.962234
316	2	0.000000	-1	1.823572	2.654078	13.270389	7.962234
317	1	1.000000	0	0.000000	3.068781	13.475581	11.140834
318	1	1.000000	0	0.000000	2.239375	13.065198	10.091788
319	2	0.000000	1	1.823572	2.654078	13.270389	10.616311
320	2	0.000000	-1	1.823572	2.654078	13.270389	10.616311
321	1	1.000000	0	0.000000	2.565814	15.785004	13.950070
322	1	1.000000	0	0.000000	2.742342	16.063931	12.590709
323	2	0.000000	1	1.823572	2.654078	15.924467	13.270389
324	2	0.000000	-1	1.823572	2.654078	15.924467	13.270389
325	1	1.000000	0	0.000000	2.100589	16.085330	16.320674
326	1	1.000000	0	0.000000	3.207567	15.763604	15.528261
327	2	0.000000	1	1.823572	2.654078	15.924467	15.924467
328	2	0.000000	-1	1.823572	2.654078	15.924467	15.924467
329	1	1.000000	0	0.000000	2.422229	15.549561	5.851201
330	1	1.000000	0	0.000000	2.885927	16.299373	4.765111
331	2	0.000000	1	1.823572	2.654078	15.924467	5.308156
332	2	0.000000	-1	1.823572	2.654078	15.924467	5.308156
333	1	1.000000	0	0.000000	2.593509	15.957409	21.928649
334	1	1.000000	0	0.000000	2.714647	15.891526	20.536597
335	2	0.000000	1	1.823572	2.654078	15.924467	21.232623
336	2	0.000000	-1	1.823572	2.654078	15.924467	21.232623
337	1	1.000000	0	0.000000	2.466543	15.511922	24.419470
338	1	1.000000	0	0.000000	2.841613	16.337012	23.353931
339	2	0.000000	1	1.823572	2.654078	15.924467	23.886701
340	2	0.000000	-1	1.823572	2.654078	15.924467	23.886701
341	1	1.000000	0	0.000000	3.084806	18.812185	13.769481
342	1	1.000000	0	0.000000	2.223350	18.344905	12.771298
343	2	0.000000	1	1.823572	2.654078	18.578545	13.270389
344	2	0.000000	-1	1.823572	2.654078	18.578545	13.270389
345	1	1.000000	0	0.000000	2.897995	18.677326	16.572505
346	1	1.000000	0	0.000000	2.410160	18.479764	15.276429
347	2	0.000000	1	1.823572	2.654078	18.578545	15.924467
348	2	0.000000	-1	1.823572	2.654078	18.578545	15.924467
349	1	1.000000	0	0.000000	1.955534	18.604108	5.332418
350	1	1.000000	0	0.000000	3.352622	18.552982	5.283893
351	2	0.000000	1	1.823572	2.654078	18.578545	5.308156
352	2	0.000000	-1	1.823572	2.654078	18.578545	5.308156
353	1	1.000000	0	0.000000	2.036951	18.892716	8.060510
354	1	1.000000	0	0.000000	3.271204	18.264374	7.863958
355	2	0.000000	1	1.823572	2.654078	18.578545	7.962234
356	2	0.000000	-1	1.823572	2.654078	18.578545	7.962234
357	1	1.000000	0	0.000000	3.348039	18.547110	10.697774
358	1	1.000000	0	0.000000	1.960117	18.609981	10.534848
359	2	0.000000	1	1.823572	2.654078	18.578545	10.616311
360	2	0.000000	-1	1.823572	2.654078	18.578545	10.616311
361	1	1.000000	0	0.000000	2.492876	21.059065	13.928491
362	1	1.000000	0	0.000000	2.815280	21.406181	12.612288
363	2	0.000000	1	1.823572	2.654078	21.232623	13.270389
364	2	0.000000	-1	1.823572	2.654078	21.232623	13.270389
365	1	1.000000	0	0.000000	2.656525	20.971083	3.302767
366	1	1.000000	0	0.000000	2.651630	21.494163	2.005389
367	2	0.000000	1	1.823572	2.654078	21.232623	2.654078
368	2	0.000000	-1	1.823572	2.654078	21.232623	2.654078
369	1	1.000000	0	0.000000	2.668057	21.296578	6.004518
370	1	1.000000	0	0.000000	2.640099	21.168668	4.611793
371	2	0.000000	1	1.823572	2.654078	21.232623	5.308156
372	2	0.000000	-1	1.823572	2.654078	21.232623	5.308156
373	1	1.000000	0	0.000000	2.407585	21.160293	21.883173
374	1	1.000000	0	0.000000	2.900571	21.304953	20.582073
375	2	0.000000	1	1.823572	2.654078	21.232623	21.232623
376	2	0.000000	-1	1.823572	2.654078	21.232623	21.232623
377	1	1.000000	0	0.000000	2.794550	20.916806	24.494758
378	1	1.000000	0	0.000000	2.513606	21.548440	23.278643
379	2	0.000000	1	1.823572	2.654078	21.232623	23.886701
380	2	0.000000	-1	1.823572	2.654078	21.232623	23.886701
381	1	1.000000	0	0.000000	2.618931	24.218478	13.885121
382	1	1.000000	0	0.000000	2.689224	23.554924	12.655658
383	2	0.000000	1	1.823572	2.654078	23.886701	13.270389
384	2	0.000000	-1	1.823572	2.654078	23.886701	13.270389
385	1	1.000000	0	0.000000	2.352075	23.721580	16.533348
386	1	1.000000	0	0.000000	2.956081	24.051822	15.315586
387	2	0.000000	1	1.823572	2.654078	23.886701	15.924467
388	2	0.000000	-1	1.823572	2.654078	23.886701	15.924467
389	1	1.000000	0	0.000000	2.741836	23.199980	5.407754
390	1	1.000000	0	0.000000	2.566320	24.573421	5.208557
391	2	0.000000	1	1.823572	2.654078	23.886701	5.308156
392	2	0.000000	-1	1.823572	2.654078	23.886701	5.308156
393	1	1.000000	0	0.000000	2.062791	24.116464	8.256845
394	1	1.000000	0	0.000000	3.245364	23.656938	7.667623
395	2	0.000000	1	1.823572	2.654078	23.886701	7.962234
396	2	0.000000	-1	1.823572	2.654078	23.886701	7.962234
397	1	1.000000	0	0.000000	2.606491	24.255722	24.478955
398	1	1.000000	0	0.000000	2.701664	23.517679	23.294447
399	2	0.000000	1	1.823572	2.654078	23.886701	23.886701
400	2	0.000000	-1	1.823572	2.654078	23.886701	23.886701
401	1	1.000000	0	0.000000	5.417168	-0.107165	13.952913
402	1	1.000000	0	0.000000	5.199143	0.107165	12.587866
403	2	0.000000	1	1.823572	5.308156	0.000000	13.270389
404	2	0.000000	-1	1.823572	5.308156	0.000000	13.270389
405	1	1.000000	0	0.000000	5.372451	0.027534	16.620394
406	1	1.000000	0	0.000000	5.243860	-0.027534	15.228540
407	2	0.000000	1	1.823572	5.308156	0.000000	15.924467
408	2	0.000000	-1	1.823572	5.308156	0.000000	15.924467
409	1	1.000000	0	0.000000	4.797823	-0.016505	19.056556
410	1	1.000000	0	0.000000	5.818488	0.016505	18.100534
411	2	0.000000	1	1.823572	5.308156	0.000000	18.578545
412	2	0.000000	-1	1.823572	5.308156	0.000000	18.578545
413	1	1.000000	0	0.000000	4.875226	0.534055	21.361322
414	1	1.000000	0	0.000000	5.741085	-0.534055	21.103923
415	2	0.000000	1	1.823572	5.308156	0.000000	21.232623
416	2	0.000000	-1	1.823572	5.308156	0.000000	21.232623
417	1	1.000000	0	0.000000	5.260047	-0.101342	11.306690
418	1	1.000000	0	0.000000	5.356264	0.101342	9.925933
419	2	0.000000	1	1.823572	5.308156	0.000000	10.616311
420	2	0.000000	-1	1.823572	5.308156	0.000000	10.616311
421	1	1.000000	0	0.000000	4.689180	2.337320	13.346154
422	1	1.000000	0	0.000000	5.927131	2.970836	13.194625
423	2	0.000000	1	1.823572	5.308156	2.654078	13.270389
424	2	0.000000	-1	1.823572	5.308156	2.654078	13.270389
425	1	1.000000	0	0.000000	5.205946	2.920077	16.563219
426	1	1.000000	0	0.000000	5.410365	2.388079	15.285715
427	2	0.000000	1	1.823572	5.308156	2.654078	15.924467
428	2	0.000000	-1	1.823572	5.308156	2.654078	15.924467
429	1	1.000000	0	0.000000	5.269821	3.053916	19.151142
430	1	1.000000	0	0.000000	5.346491	2.254240	18.005949
431	2	0.000000	1	1.823572	5.308156	2.654078	18.578545
432	2	0.000000	-1	1.823572	5.308156	2.654078	18.578545
433	1	1.000000	0	0.000000	5.995693	2.622868	21.357222
434	1	1.000000	0	0.000000	4.620618	2.685288	21.108024
435	2	0.000000	1	1.823572	5.308156	2.654078	21.232623
436	2	0.000000	-1	1.823572	5.308156	2.654078	21.232623
437	1	1.000000	0	0.000000	4.950002	2.862622	11.179731
438	1	1.000000	0	0.000000	5.666310	2.445533	10.052892
439	2	0.000000	1	1.823572	5.308156	2.654078	10.616311
440	2	0.000000	-1	1.823572	5.308156	2.654078	10.616311
441	1	1.000000	0	0.000000	5.114917	5.028929	13.881861
442	1	1.000000	0	0.000000	5.501395	5.587383	12.658918
443	2	0.000000	1	1.823572	5.308156	5.308156	13.270389
444	2	0.000000	-1	1.823572	5.308156	5.308156	13.270389
445	1	1.000000	0	0.000000	4.752297	5.707809	16.067663
446	1	1.000000	0	0.000000	5.864014	4.908503	15.781271
447	2	0.000000	1	1.823572	5.308156	5.308156	15.924467
448	2	0.000000	-1	1.823572	5.308156	5.308156	15.924467
449	1	1.000000	0	0.000000	5.779228	5.225788	19.088950
450	1	1.000000	0	0.000000	4.837084	5.390524	18.068140
451	2	0.000000	1	1.823572	5.308156	5.308156	18.578545
452	2	0.000000	-1	1.823572	5.308156	5.308156	18.578545
453	1	1.000000	0	0.000000	5.327604	4.932399	21.822229
454	1	1.000000	0	0.000000	5.288707	5.683913	20.643017
455	2	0.000000	1	1.823572	5.308156	5.308156	21.232623
456	2	0.000000	-1	1.823572	5.308156	5.308156	21.232623
457	1	1.000000	0	0.000000	5.562213	5.465780	24.519011
458	1	1.000000	0	0.000000	5.054098	5.150531	23.254391
459	2	0.000000	1	1.823572	5.308156	5.308156	23.886701
460	2	0.000000	-1	1.823572	5.308156	5.308156	23.886701
461	1	1.000000	0	0.000000	4.680034	7.699275	13.430146
462	1	1.000000	0	0.000000	5.936278	8.225192	13.110633
463	2	0.000000	1	1.823572	5.308156	7.962234	13.270389
464	2	0.000000	-1	1.823572	5.308156	7.962234	13.270389
465	1	1.000000	0	0.000000	5.399314	7.305255	16.146448
466	1	1.000000	0	0.000000	5.216997	8.619212	15.702486
467	2	0.000000	1	1.823572	5.308156	7.962234	15.924467
468	2	0.000000	-1	1.823572	5.308156	7.962234	15.924467
469	1	1.000000	0	0.000000	5.810197	8.315691	5.643162
470	1	1.000000	0	0.000000	4.806114	7.608776	4.973150
471	2	0.000000	1	1.823572	5.308156	7.962234	5.308156
472	2	0.000000	-1	1.823572	5.308156	7.962234	5.308156
473	1	1.000000	0	0.000000	5.527481	8.625940	7.986673
474	1	1.000000	0	0.000000	5.088831	7.298528	7.937795
475	2	0.000000	1	1.823572	5.308156	7.962234	7.962234
476	2	0.000000	-1	1.823572	5.308156	7.962234	7.962234
477	1	1.000000	0	0.000000	5.558792	7.990056	11.268702
478	1	1.000000	0	0.000000	5.057519	7.934411	9.963921
479	2	0.000000	1	1.823572	5.308156	7.962234	10.616311
480	2	0.000000	-1	1.823572	5.308156	7.962234	10.616311
481	1	1.000000	0	0.000000	5.890064	10.720847	0.373713
482	1	1.000000	0	0.000000	4.726247	10.511776	-0.373713
483	2	0.000000	1	1.823572	5.308156	10.616311	0.000000
484	2	0.000000	-1	1.823572	5.308156	10.616311	0.000000
485	1	1.000000	0	0.000000	5.027434	10.155622	3.099238
486	1	1.000000	0	0.000000	5.588877	11.077001	2.208918
487	2	0.000000	1	1.823572	5.308156	10.616311	2.654078
488	2	0.000000	-1	1.823572	5.308156	10.616311	2.654078
489	1	1.000000	0	0.000000	5.918650	10.368185	18.812929
490	1	1.000000	0	0.000000	4.697661	10.864438	18.344162
491	2	0.000000	1	1.823572	5.308156	10.616311	18.578545
492	2	0.000000	-1	1.823572	5.308156	10.616311	18.578545
493	1	1.000000	0	0.000000	4.684314	10.545891	8.270566
494	1	1.000000	0	0.000000	5.931997	10.686732	7.653901
495	2	0.000000	1	1.823572	5.308156	10.616311	7.962234
496	2	0.000000	-1	1.823572	5.308156	10.616311	7.962234
497	1	1.000000	0	0.000000	5.075801	10.346434	11.218295
498	1	1.000000	0	0.000000	5.540510	10.886189	10.014328
499	2	0.000000	1	1.823572	5.308156	10.616311	10.616311
500	2	0.000000	-1	1.823572	5.308156	10.616311	10.616311
501	1	1.000000	0	0.000000	5.228668	13.284009	13.965157
502	1	1.000000	0	0.000000	5.387643	13.256769	12.575621
503	2	0.000000	1	1.823572	5.308156	13.270389	13.270389
504	2	0.000000	-1	1.823572	5.308156	13.270389	13.270389
505	1	1.000000	0	0.000000	5.016329	13.189766	16.554978
506	1	1.000000	0	0.000000	5.599982	13.351013	15.293957
507	2	0.000000	1	1.823572	5.308156	13.270389	15.924467
508	2	0.000000	-1	1.823572	5.308156	13.270389	15.924467
509	1	1.000000	0	0.000000	5.891154	13.175510	5.682745
510	1	1.000000	0	0.000000	4.725157	13.365269	4.933566
511	2	0.000000	1	1.823572	5.308156	13.270389	5.308156
512	2	0.000000	-1	1.823572	5.308156	13.270389	5.308156
513	1	1.000000	0	0.000000	4.652062	13.440116	8.135265
514	1	1.000000	0	0.000000	5.964250	13.100663	7.789202
515	2	0.000000	1	1.823572	5.308156	13.270389	7.962234
516	2	0.000000	-1	1.823572	5.308156	13.270389	7.962234
517	1	1.000000	0	0.000000	5.766445	13.057354	11.099834
518	1	1.000000	0	0.000000	4.849867	13.483424	10.132789
519	2	0.000000	1	1.823572	5.308156	13.270389	10.616311
520	2	0.000000	-1	1.823572	5.308156	13.270389	10.616311
521	1	1.000000	0	0.000000	5.914339	15.814983	0.331303
522	1	1.000000	0	0.000000	4.701972	16.033951	-0.331303
523	2	0.000000	1	1.823572	5.308156	15.924467	0.000000
524	2	0.000000	-1	1.823572	5.308156	15.924467	0.000000
525	1	1.000000	0	0.000000	5.853836	16.227933	2.969274
526	1	1.000000	0	0.000000	4.762476	15.621002	2.338882
527	2	0.000000	1	1.823572	5.308156	15.924467	2.654078
528	2	0.000000	-1	1.823572	5.308156	15.924467	2.654078
529	1	1.000000	0	0.000000	5.407874	16.432617	5.778311
530	1	1.000000	0	0.000000	5.208437	15.416317	4.838000
531	2	0.000000	1	1.823572	5.308156	15.924467	5.308156
532	2	0.000000	-1	1.823572	5.308156	15.924467	5.308156
533	1	1.000000	0	0.000000	5.899720	15.554374	8.010075
534	1	1.000000	0	0.000000	4.716591	16.294560	7.914392
535	2	0.000000	1	1.823572	5.308156	15.924467	7.962234
536	2	0.000000	-1	1.823572	5.308156	15.924467	7.962234
537	1	1.000000	0	0.000000	5.394955	15.851409	24.576871
538	1	1.000000	0	0.000000	5.221356	15.997526	23.196531
539	2	0.000000	1	1.823572	5.308156	15.924467	23.886701
540	2	0.000000	-1	1.823572	5.308156	15.924467	23.886701
541	1	1.000000	0	0.000000	4.734275	18.806634	0.328393
542	1	1.000000	0	0.000000	5.882037	18.350456	-0.328393
543	2	0.000000	1	1.823572	5.308156	18.578545	0.000000
544	2	0.000000	-1	1.823572	5.308156	18.578545	0.000000
545	1	1.000000	0	0.000000	5.047461	17.951614	16.092402
546	1	1.000000	0	0.000000	5.568850	19.205476	15.756533
547	2	0.000000	1	1.823572	5.308156	18.578545	15.924467
548	2	0.000000	-1	1.823572	5.308156	18.578545	15.924467