LAMMPS (29 Oct 2020)
variable        sname index eff_h2

units 		electron
newton		on
boundary	p p p

atom_style	electron

read_data	data.lammps
Reading data file ...
  orthogonal box = (0.0000000 0.0000000 0.0000000) to (26.540779 26.540779 26.540779)
  2 by 2 by 2 MPI processor grid
  reading atoms ...
  2000 atoms
  read_data CPU = 0.025 seconds

group           ion type 1
1000 atoms in group ion
group           el  type 2
1000 atoms in group el

pair_style      eff/cut 20.15
pair_coeff	* *

neigh_modify    one 20000 page 200000

comm_modify	vel yes

compute         effTemp all temp/eff
compute         energies all pair eff/cut
variable        eke equal c_energies[1]
variable        epauli equal c_energies[2]
variable        ecoul equal c_energies[3]
variable        erres equal c_energies[4]

compute         ion_Temp ion temp

thermo          1000
thermo_style    custom step pe temp press vol v_eke v_epauli v_ecoul v_erres density lx c_ion_Temp
thermo_modify   temp effTemp

# structure minimization
min_style	cg
minimize 	0 1.0e-4 10 10
WARNING: Using 'neigh_modify every 1 delay 0 check yes' setting during minimization (../min.cpp:187)
Neighbor list info ...
  update every 1 steps, delay 0 steps, check yes
  max neighbors/atom: 20000, page size: 200000
  master list distance cutoff = 22.15
  ghost atom cutoff = 22.15
  binsize = 11.075, bins = 3 3 3
  1 neighbor lists, perpetual/occasional/extra = 1 0 0
  (1) pair eff/cut, perpetual
      attributes: half, newton on
      pair build: half/bin/atomonly/newton
      stencil: half/bin/3d/newton
      bin: standard
Per MPI rank memory allocation (min/avg/max) = 13.39 | 14.06 | 14.93 Mbytes
Step PotEng Temp Press Volume v_eke v_epauli v_ecoul v_erres Density Lx c_ion_Temp 
       0   -326.34501            0 4.6015763e+11    18695.668    451.07154    179.63813   -957.05468            0   0.10740135    26.540779            0 
      10   -363.04092            0 3.852849e+11    18695.668    507.67417    136.98236   -1007.6975            0   0.10740135    26.540779            0 
Loop time of 1.31499 on 8 procs for 10 steps with 2000 atoms

99.9% CPU use with 8 MPI tasks x no OpenMP threads

Minimization stats:
  Stopping criterion = max force evaluations
  Energy initial, next-to-last, final = 
     -326.345007289065  -359.752935001645  -363.040922400692
  Force two-norm initial, final = 19.676762 15.828149
  Force max component initial, final = 0.94188775 0.7695003
  Final line search alpha, max atom move = 0.012587272 0.0096859095
  Iterations, force evaluations = 10 10

MPI task timing breakdown:
Section |  min time  |  avg time  |  max time  |%varavg| %total
---------------------------------------------------------------
Pair    | 0.49638    | 0.81994    | 1.2977     |  25.9 | 62.35
Neigh   | 0          | 0          | 0          |   0.0 |  0.00
Comm    | 0.013948   | 0.49162    | 0.81507    |  33.5 | 37.39
Output  | 0          | 0          | 0          |   0.0 |  0.00
Modify  | 0          | 0          | 0          |   0.0 |  0.00
Other   |            | 0.00344    |            |       |  0.26

Nlocal:        250.000 ave         341 max         183 min
Histogram: 1 1 2 0 0 2 1 0 0 1
Nghost:        21046.0 ave       21125 max       20935 min
Histogram: 1 0 1 0 0 1 2 1 0 2
Neighs:       611570.0 ave      858015 max      433942 min
Histogram: 1 1 2 0 1 1 1 0 0 1

Total # of neighbors = 4892564
Ave neighs/atom = 2446.2820
Neighbor list builds = 0
Dangerous builds = 0

timestep	0.005

velocity	ion create 1000.0 4928459 rot yes mom yes dist gaussian

# nve
fix		1 all nve/eff
#fix             2 all imd 8888 trate 1 unwrap on nowait on

compute		peatom all pe/atom
compute		keatom all ke/atom/eff

dump		2 all xyz 1000 ${sname}.nve.xyz
dump		2 all xyz 1000 eff_h2.nve.xyz
compute         1 all property/atom spin eradius
dump		3 all custom 1000 ${sname}.nve.lammpstrj id type x y z c_1[1] c_1[2] c_peatom c_keatom
dump		3 all custom 1000 eff_h2.nve.lammpstrj id type x y z c_1[1] c_1[2] c_peatom c_keatom

fix 		rescale_ions ion temp/rescale 100 800.0 800.0 0.02 0.5
run		20000
Per MPI rank memory allocation (min/avg/max) = 11.42 | 11.52 | 12.20 Mbytes
Step PotEng Temp Press Volume v_eke v_epauli v_ecoul v_erres Density Lx c_ion_Temp 
      10   -363.04092         1000 3.9026347e+11    18695.668    507.67417    136.98236   -1007.6975            0   0.10740135    26.540779         1000 
    1000   -430.09946    3310.6926 1.4243063e+11    18695.668    605.63642    41.884966   -1077.6209            0   0.10740135    26.540779    1193.4441 
    2000   -447.46126    1977.9887 1.2485388e+11    18695.668    639.04449    23.670499   -1110.1763            0   0.10740135    26.540779    1000.9926 
    3000    -452.6464    1624.3118 1.0532183e+11    18695.668    623.38927    19.932602   -1095.9683            0   0.10740135    26.540779     938.1866 
    4000   -455.42073    1599.9964 9.6256086e+10    18695.668    608.45699    20.104806   -1083.9825            0   0.10740135    26.540779    874.40187 
    5000   -457.00714    1475.1333 1.0152662e+11    18695.668    601.95214    19.744366   -1078.7037            0   0.10740135    26.540779    819.91713 
    6000   -457.64484    1427.1815 9.1300116e+10    18695.668    605.81611    18.223976   -1081.6849            0   0.10740135    26.540779     817.0597 
    7000   -458.48671    1417.0065 9.2052225e+10    18695.668    601.60369    17.975553    -1078.066            0   0.10740135    26.540779    822.01215 
    8000   -458.80987     1376.591 9.317073e+10    18695.668    599.13109    17.980345   -1075.9213            0   0.10740135    26.540779    802.68753 
    9000   -458.97202    1344.9639 8.9303434e+10    18695.668    599.02056    17.823412    -1075.816            0   0.10740135    26.540779    801.76002 
   10000   -458.96573    1319.3817 9.0687019e+10    18695.668    598.95207    17.779033   -1075.6968            0   0.10740135    26.540779    799.73076 
   11000   -459.40726    1351.8671 8.987532e+10    18695.668    599.40804    17.286041   -1076.1013            0   0.10740135    26.540779    815.80837 
   12000   -459.64795     1345.511 8.8026886e+10    18695.668    597.93068    17.201385     -1074.78            0   0.10740135    26.540779    805.89314 
   13000   -459.63541    1299.9228 8.9638062e+10    18695.668    595.74846    17.446548   -1072.8304            0   0.10740135    26.540779    801.94037 
   14000    -459.5053    1325.9545 8.879223e+10    18695.668    597.87344    17.084452   -1074.4632            0   0.10740135    26.540779    801.42303 
   15000   -459.60738    1316.1224 8.904085e+10    18695.668     596.6817    17.199628   -1073.4887            0   0.10740135    26.540779    803.25922 
   16000   -459.67605    1320.5074 8.8209684e+10    18695.668    596.02806       17.037   -1072.7411            0   0.10740135    26.540779    802.38609 
   17000   -459.82218    1291.7644 8.7195648e+10    18695.668    597.20512    16.862737     -1073.89            0   0.10740135    26.540779    807.39024 
   18000   -459.61892    1284.7591 8.8991692e+10    18695.668    595.44617    17.114973   -1072.1801            0   0.10740135    26.540779    795.55732 
   19000   -459.67895    1288.5268 8.776001e+10    18695.668    596.71731     16.88855   -1073.2848            0   0.10740135    26.540779    797.38238 
   20000   -459.97647     1288.135 8.7115575e+10    18695.668    595.70808    16.679789   -1072.3643            0   0.10740135    26.540779    805.51895 
   20010   -459.97405    1287.6259 8.7156569e+10    18695.668    595.70539    16.679582    -1072.359            0   0.10740135    26.540779    805.28723 
Loop time of 1557.56 on 8 procs for 20000 steps with 2000 atoms

Performance: 5547.124 fs/day, 0.004 hours/fs, 12.841 timesteps/s
99.9% CPU use with 8 MPI tasks x no OpenMP threads

MPI task timing breakdown:
Section |  min time  |  avg time  |  max time  |%varavg| %total
---------------------------------------------------------------
Pair    | 1416.5     | 1447.2     | 1491.5     |  72.0 | 92.91
Neigh   | 0.19163    | 0.19515    | 0.198      |   0.5 |  0.01
Comm    | 61.584     | 105.86     | 136.61     | 266.6 |  6.80
Output  | 0.032714   | 0.032731   | 0.03283    |   0.0 |  0.00
Modify  | 0.17215    | 0.17978    | 0.18684    |   1.4 |  0.01
Other   |            | 4.118      |            |       |  0.26

Nlocal:        250.000 ave         257 max         246 min
Histogram: 1 2 2 0 1 1 0 0 0 1
Nghost:        20134.9 ave       20304 max       19962 min
Histogram: 1 1 0 1 1 1 1 0 0 2
Neighs:       608645.0 ave      623359 max      592975 min
Histogram: 1 0 1 0 2 2 0 1 0 1

Total # of neighbors = 4869159
Ave neighs/atom = 2434.5795
Neighbor list builds = 18
Dangerous builds = 0
write_restart   restart.after_rescale
System init for write_restart ...
unfix		rescale_ions

run		20000
Per MPI rank memory allocation (min/avg/max) = 14.97 | 15.07 | 15.74 Mbytes
Step PotEng Temp Press Volume v_eke v_epauli v_ecoul v_erres Density Lx c_ion_Temp 
   20010   -459.97405    1287.6259 8.7156569e+10    18695.668    595.70539    16.679582    -1072.359            0   0.10740135    26.540779    805.28723 
   21000   -460.00665    1294.4947 8.7918132e+10    18695.668     594.9162    16.827147     -1071.75            0   0.10740135    26.540779    809.67409 
   22000   -460.08851    1311.7449 8.7234268e+10    18695.668    593.91983    16.881145   -1070.8895            0   0.10740135    26.540779    827.17231 
   23000   -459.90474    1273.0208 8.6831175e+10    18695.668    596.13635    16.602841   -1072.6439            0   0.10740135    26.540779     791.0668 
   24000    -460.1478    1324.2392 8.7111342e+10    18695.668    594.71142    16.624164   -1071.4834            0   0.10740135    26.540779     835.3989 
   25000   -459.86892    1265.4713 8.7456666e+10    18695.668    595.08437    16.778242   -1071.7315            0   0.10740135    26.540779    820.43736 
   26000   -459.88598    1269.0662 8.6025749e+10    18695.668    595.02025    16.651259   -1071.5575            0   0.10740135    26.540779    806.48076 
   27000   -460.02905    1299.2154 8.7071311e+10    18695.668    594.74951    16.548288   -1071.3268            0   0.10740135    26.540779    824.52251 
   28000   -459.96276    1285.2457 8.7358143e+10    18695.668    595.15937    16.528463   -1071.6506            0   0.10740135    26.540779     831.4439 
   29000   -459.91309    1274.7796 8.7024733e+10    18695.668    593.19836    16.746713   -1069.8582            0   0.10740135    26.540779    828.18949 
   30000   -460.09286    1312.6624 8.6942715e+10    18695.668    594.36431    16.571935   -1071.0291            0   0.10740135    26.540779     831.4669 
   31000   -460.17436    1329.8371 8.6210506e+10    18695.668    593.63649    16.462506   -1070.2734            0   0.10740135    26.540779    848.14173 
   32000   -459.87581     1266.924 8.6967906e+10    18695.668    594.74301    16.486499   -1071.1053            0   0.10740135    26.540779    794.94099 
   33000    -459.9085    1273.8126 8.6355908e+10    18695.668    595.27285    16.410899   -1071.5923            0   0.10740135    26.540779    788.59521 
   34000    -460.1334    1321.2054 8.6799869e+10    18695.668     592.6931    16.682952   -1069.5095            0   0.10740135    26.540779    851.15765 
   35000   -460.39234    1375.7706 8.6909229e+10    18695.668    592.40395    16.401161   -1069.1975            0   0.10740135    26.540779    888.94815 
   36000   -460.12071    1318.5306 8.4931253e+10    18695.668    596.08363    16.058765   -1072.2631            0   0.10740135    26.540779    844.94913 
   37000   -460.00541    1294.2347 8.6041553e+10    18695.668    593.36508    16.496999   -1069.8675            0   0.10740135    26.540779    826.30099 
   38000   -460.00025    1293.1473 8.8283924e+10    18695.668     592.0186    16.767321   -1068.7862            0   0.10740135    26.540779    820.26302 
   39000   -460.18915    1332.9526 8.5002283e+10    18695.668    595.06294    16.075513   -1071.3276            0   0.10740135    26.540779    847.70619 
   40000   -460.14604    1323.8682 8.5300495e+10    18695.668    594.43181    16.268878   -1070.8467            0   0.10740135    26.540779    854.39152 
   40010    -460.1418    1322.9757 8.5354686e+10    18695.668    594.46832    16.262577   -1070.8727            0   0.10740135    26.540779    852.77353 
Loop time of 1547.06 on 8 procs for 20000 steps with 2000 atoms

Performance: 5584.804 fs/day, 0.004 hours/fs, 12.928 timesteps/s
99.9% CPU use with 8 MPI tasks x no OpenMP threads

MPI task timing breakdown:
Section |  min time  |  avg time  |  max time  |%varavg| %total
---------------------------------------------------------------
Pair    | 1406.5     | 1445       | 1496.3     |  69.5 | 93.40
Neigh   | 0.19369    | 0.19657    | 0.20219    |   0.6 |  0.01
Comm    | 46.164     | 97.659     | 136.08     | 267.5 |  6.31
Output  | 0.03139    | 0.031428   | 0.031494   |   0.0 |  0.00
Modify  | 0.16484    | 0.17341    | 0.18144    |   1.4 |  0.01
Other   |            | 4.01       |            |       |  0.26

Nlocal:        250.000 ave         263 max         229 min
Histogram: 1 0 0 1 0 1 2 1 0 2
Nghost:        20129.1 ave       20338 max       19919 min
Histogram: 1 0 0 2 1 1 1 1 0 1
Neighs:       608701.0 ave      646385 max      556069 min
Histogram: 1 0 1 0 0 1 2 1 1 1

Total # of neighbors = 4869606
Ave neighs/atom = 2434.8030
Neighbor list builds = 18
Dangerous builds = 0
write_restart   restart.after_relax
System init for write_restart ...

fix             heat_ion ion heat 50 0.0347 # 9.1 K/fs
run		6000000
Per MPI rank memory allocation (min/avg/max) = 14.97 | 15.07 | 15.74 Mbytes
Step PotEng Temp Press Volume v_eke v_epauli v_ecoul v_erres Density Lx c_ion_Temp 
   40010    -460.1418    1322.9757 8.5354686e+10    18695.668    594.46832    16.262577   -1070.8727            0   0.10740135    26.540779    852.77353 
   41000   -460.11696    1354.3021 8.802603e+10    18695.668    590.49384    16.692981   -1067.3038            0   0.10740135    26.540779    861.04826 
   42000   -460.06866    1380.6847 8.5638792e+10    18695.668    593.64571    16.347568   -1070.0619            0   0.10740135    26.540779    885.01193 
   43000   -459.87259    1375.9298 8.5638624e+10    18695.668    595.38292    16.198703   -1071.4542            0   0.10740135    26.540779    892.95972 
   44000   -459.74043    1384.6395 8.8371673e+10    18695.668    592.81482    16.638253   -1069.1935            0   0.10740135    26.540779    882.01238 
   45000   -459.63399     1398.772 8.810711e+10    18695.668    592.34574    16.878329   -1068.8581            0   0.10740135    26.540779    891.12358 
   46000   -459.57989     1423.933 8.7051464e+10    18695.668    594.14963    16.573596   -1070.3031            0   0.10740135    26.540779     916.2278 
   47000   -459.49429    1442.4549 8.7284421e+10    18695.668    595.27228    16.260974   -1071.0275            0   0.10740135    26.540779    915.83526 
   48000   -459.71305    1525.1151 8.7213825e+10    18695.668    593.37637    16.529691   -1069.6191            0   0.10740135    26.540779    980.84027 
   49000   -459.51463     1519.863 8.7844404e+10    18695.668    593.24585    16.658194   -1069.4187            0   0.10740135    26.540779    993.59168 
   50000   -459.50136    1553.6292 8.7505369e+10    18695.668    593.71864    16.496093   -1069.7161            0   0.10740135    26.540779    1013.8926 
   51000   -459.27506    1542.5016 8.8569462e+10    18695.668    593.43652    16.650494   -1069.3621            0   0.10740135    26.540779    1021.3653 
   52000   -459.41429     1608.404  8.77163e+10    18695.668    593.76861    16.551425   -1069.7343            0   0.10740135    26.540779     1034.416 
   53000   -458.94925     1546.967 8.8552943e+10    18695.668    594.85608    16.618217   -1070.4235            0   0.10740135    26.540779    990.24275 
   54000   -458.91332    1575.9566 8.8251836e+10    18695.668    594.15892    16.738451   -1069.8107            0   0.10740135    26.540779    1020.3495 
   55000   -459.17647    1667.9727 8.9346658e+10    18695.668    592.07292    16.876697   -1068.1261            0   0.10740135    26.540779     1097.922 
   56000   -458.88996    1644.1584 8.9712494e+10    18695.668    594.67893    16.787704   -1070.3566            0   0.10740135    26.540779    1078.0763 
   57000   -458.90267    1683.3979 8.6994667e+10    18695.668    595.19258      16.6137    -1070.709            0   0.10740135    26.540779    1075.2149 
   58000   -458.76366    1690.6644 9.0644629e+10    18695.668    593.80363    16.805915   -1069.3732            0   0.10740135    26.540779    1094.8418 
   59000    -458.8547    1746.4099 8.8910298e+10    18695.668    594.15097    16.714303     -1069.72            0   0.10740135    26.540779     1131.318 
   60000   -458.56365    1721.6409 8.8473239e+10    18695.668    594.01723    17.036626   -1069.6175            0   0.10740135    26.540779    1141.6336 
   61000   -458.39583    1722.8374 9.0605713e+10    18695.668    595.45166    16.872487     -1070.72            0   0.10740135    26.540779    1112.8254 
   62000    -458.4776    1776.6281 9.0223306e+10    18695.668    595.79149    16.772583   -1071.0417            0   0.10740135    26.540779    1149.4035 
   63000   -458.40992    1798.9283 8.9493924e+10    18695.668    592.26826    17.143333   -1067.8215            0   0.10740135    26.540779    1180.2915 
   64000   -458.23541    1798.7161 9.0551677e+10    18695.668    593.23237    17.158068   -1068.6259            0   0.10740135    26.540779    1161.5329 
   65000   -458.20587    1829.0527 9.0028661e+10    18695.668    596.20592    16.586323   -1070.9981            0   0.10740135    26.540779    1185.1655 
   66000   -458.07333    1837.6825 9.0658192e+10    18695.668    595.01943    17.059783   -1070.1525            0   0.10740135    26.540779      1221.46 
   67000   -457.80878    1818.4972 9.043815e+10    18695.668    594.54178    17.261968   -1069.6125            0   0.10740135    26.540779    1192.2818 
   68000   -457.96234    1887.4168 9.3304142e+10    18695.668    593.02322    17.437725   -1068.4233            0   0.10740135    26.540779    1232.6497 
   69000   -458.00827    1933.6569 9.1331966e+10    18695.668    593.79097    17.288685   -1069.0879            0   0.10740135    26.540779    1259.1924 
   70000   -457.69556    1904.3216 9.0861196e+10    18695.668    596.46305    17.080987   -1071.2396            0   0.10740135    26.540779    1233.6142 
   71000   -457.49951    1899.5699 9.4247067e+10    18695.668    594.07714    17.540789   -1069.1174            0   0.10740135    26.540779    1254.2919 
   72000   -457.72004    1982.6025 9.2418567e+10    18695.668    592.75398    17.528583   -1068.0026            0   0.10740135    26.540779    1302.8588 
   73000   -457.58965    1991.6864 9.2207103e+10    18695.668    595.31232    17.321431   -1070.2234            0   0.10740135    26.540779    1288.4213 
   74000   -457.50852    2011.1525 9.1110823e+10    18695.668    596.15846    17.147803   -1070.8148            0   0.10740135    26.540779    1315.7442 
   75000   -457.34794    2013.8742 9.320993e+10    18695.668    594.52154    17.576921   -1069.4464            0   0.10740135    26.540779    1273.6248 
   76000    -457.6015    2103.8673 9.4259095e+10    18695.668     592.0831    17.757092   -1067.4417            0   0.10740135    26.540779    1316.2358 
   77000   -457.14932    2045.1431 9.1736503e+10    18695.668    594.91765     17.51712   -1069.5841            0   0.10740135    26.540779    1307.6298 
   78000   -457.20993    2094.4766 9.3434447e+10    18695.668    595.22158    17.458084   -1069.8896            0   0.10740135    26.540779    1384.7895 
   79000   -456.90401    2066.5717 9.3404844e+10    18695.668    595.75978     17.57758   -1070.2414            0   0.10740135    26.540779     1320.341 
   80000   -457.03202    2130.1079 9.3180574e+10    18695.668    594.60607    17.714769   -1069.3529            0   0.10740135    26.540779    1368.4267 
   81000   -456.70383    2097.5109 9.4437372e+10    18695.668    595.17725    17.867338   -1069.7484            0   0.10740135    26.540779    1334.1762 
   82000   -457.09632    2216.7802 9.4127581e+10    18695.668    594.42434    17.626088   -1069.1468            0   0.10740135    26.540779    1408.1482 
   83000    -456.8285    2196.9041 9.3180303e+10    18695.668    596.01811      17.5822   -1070.4288            0   0.10740135    26.540779    1420.8371 
   84000   -456.76083    2219.2045 9.4716035e+10    18695.668    594.10294    17.922033   -1068.7858            0   0.10740135    26.540779    1409.3462 
   85000   -456.47142      2194.78 9.5083069e+10    18695.668    593.70538    18.129182    -1068.306            0   0.10740135    26.540779    1402.1479 
   86000   -456.69763      2279.01 9.3527092e+10    18695.668     595.3008    17.694872   -1069.6933            0   0.10740135    26.540779     1477.974 
   87000   -456.07458    2184.2784 9.463899e+10    18695.668    597.26966     17.88403   -1071.2283            0   0.10740135    26.540779    1405.3026 
   88000    -456.1234    2231.1267 9.594086e+10    18695.668    594.95954    18.166613   -1069.2496            0   0.10740135    26.540779    1436.0928 
   89000   -456.39789    2325.5291 9.4579522e+10    18695.668    595.66504    17.691198   -1069.7541            0   0.10740135    26.540779    1481.8986 
   90000    -456.0926    2297.7587 9.6114773e+10    18695.668     594.4771     18.00845   -1068.5782            0   0.10740135    26.540779    1479.8193 
   91000   -456.06522    2328.5506 9.5619964e+10    18695.668    594.33895    18.037964   -1068.4421            0   0.10740135    26.540779    1456.2103 
   92000   -455.96623    2344.2512 9.5640745e+10    18695.668     594.3282    18.183485   -1068.4779            0   0.10740135    26.540779    1479.6648 
   93000   -455.90927    2368.8095 9.720375e+10    18695.668    593.02513    18.339532   -1067.2739            0   0.10740135    26.540779    1504.7656 
   94000     -455.776    2377.2876 9.5305095e+10    18695.668    596.75106    17.782477   -1070.3095            0   0.10740135    26.540779    1497.2137 
   95000   -455.45815    2346.8689 9.3985108e+10    18695.668    597.16564    17.856847   -1070.4806            0   0.10740135    26.540779    1485.6567 
   96000   -455.94602     2486.236 9.672911e+10    18695.668    594.86341    17.963189   -1068.7726            0   0.10740135    26.540779    1560.2489 
   97000   -455.49692    2428.1602 9.7089809e+10    18695.668    596.47444    18.181496   -1070.1529            0   0.10740135    26.540779    1517.4673 
   98000   -455.23475     2409.476 9.5373862e+10    18695.668    595.69384    18.522624   -1069.4512            0   0.10740135    26.540779    1523.5157 
   99000   -455.47964    2497.6423 9.7858162e+10    18695.668     592.8616    18.511051   -1066.8523            0   0.10740135    26.540779     1595.059 
  100000   -455.36283    2509.5891 9.7069726e+10    18695.668    596.35582    18.123679   -1069.8423            0   0.10740135    26.540779      1597.58 
  101000   -455.26327    2525.1696 9.6835518e+10    18695.668    596.85985     18.26501   -1070.3881            0   0.10740135    26.540779    1611.5753 
  102000   -455.01805    2510.0553 9.6921426e+10    18695.668    593.29313    18.748713   -1067.0599            0   0.10740135    26.540779    1613.6535 
  103000   -454.85849    2512.9939 9.9348479e+10    18695.668    593.88393    18.995769   -1067.7382            0   0.10740135    26.540779    1563.6485 
  104000   -454.91748    2561.9855 9.7170228e+10    18695.668    595.52282    18.338488   -1068.7788            0   0.10740135    26.540779    1586.1456 
  105000    -454.5775    2526.9044 9.787441e+10    18695.668    596.55526    18.435793   -1069.5686            0   0.10740135    26.540779     1634.408 
  106000   -454.75585    2601.0484 9.7620407e+10    18695.668    594.34291    18.843279    -1067.942            0   0.10740135    26.540779    1643.6493 
  107000   -454.67997    2621.6201 9.8188031e+10    18695.668    593.38816    18.921019   -1066.9892            0   0.10740135    26.540779    1674.3901 
  108000   -454.48154    2616.3663 9.8288071e+10    18695.668    596.06496    18.511371   -1069.0579            0   0.10740135    26.540779    1670.7294 
  109000   -454.39238     2634.139 9.7589161e+10    18695.668    598.06211    18.244324   -1070.6988            0   0.10740135    26.540779    1690.4654 
  110000   -454.38762    2669.6975 9.9230011e+10    18695.668    594.84032    18.816572   -1068.0445            0   0.10740135    26.540779    1740.6879 
  111000    -454.1898    2664.5715 9.8905362e+10    18695.668    593.41673    19.309231   -1066.9158            0   0.10740135    26.540779    1659.9346 
  112000   -454.20267    2703.8443 1.0052088e+11    18695.668    594.52781    19.149225   -1067.8797            0   0.10740135    26.540779    1648.2792 
  113000   -454.22971    2746.1045 9.8209546e+10    18695.668    597.05499    18.666502   -1069.9512            0   0.10740135    26.540779    1730.7036 
  114000   -454.22735    2782.1686 9.8051048e+10    18695.668    594.77931     18.85148   -1067.8581            0   0.10740135    26.540779    1767.7112 
  115000   -454.04706    2780.7368 9.9607623e+10    18695.668    594.71485    18.728528   -1067.4904            0   0.10740135    26.540779    1727.7467 
  116000   -453.84448    2774.6102 1.0125724e+11    18695.668    594.37232    19.238464   -1067.4553            0   0.10740135    26.540779    1723.8236 
  117000   -453.75579    2792.4809 1.0269304e+11    18695.668    593.51839    19.439091   -1066.7133            0   0.10740135    26.540779    1742.5798 
  118000   -453.69194    2815.5871 9.7662086e+10    18695.668    596.90647    18.937774   -1069.5362            0   0.10740135    26.540779    1725.1354 
  119000   -453.57042    2826.5415 1.0036135e+11    18695.668    594.63835     19.14738   -1067.3562            0   0.10740135    26.540779    1750.6358 
  120000   -453.51934    2852.3384 1.0399293e+11    18695.668    595.08048    19.233077   -1067.8329            0   0.10740135    26.540779    1777.8906 
  121000   -453.17057    2815.4042 9.5753052e+10    18695.668    598.49044    18.572675   -1070.2337            0   0.10740135    26.540779    1729.5894 
  122000     -453.404    2901.1554 1.0244446e+11    18695.668    593.71226    19.367557   -1066.4838            0   0.10740135    26.540779    1786.0511 
  123000   -453.42618    2942.3913 1.0408294e+11    18695.668    594.34754    19.543446   -1067.3172            0   0.10740135    26.540779    1815.1207 
  124000    -452.9557    2879.8095 1.0020135e+11    18695.668    596.85799    19.437882   -1069.2516            0   0.10740135    26.540779    1790.1502 
  125000   -453.05576     2937.456 1.0337568e+11    18695.668    593.78043    19.792121   -1066.6283            0   0.10740135    26.540779     1812.253 
  126000   -452.79053    2918.1258 1.0229686e+11    18695.668    596.09643    19.476523   -1068.3635            0   0.10740135    26.540779    1799.7151 
  127000   -452.50243    2893.9776 1.0271477e+11    18695.668    595.43366    19.761806   -1067.6979            0   0.10740135    26.540779    1791.5662 
  128000   -452.86514    3006.9696 1.0166158e+11    18695.668    595.79177    19.514282   -1068.1712            0   0.10740135    26.540779    1867.9287 
  129000   -452.67597    3003.6693 1.0197859e+11    18695.668    597.11627    19.398221   -1069.1905            0   0.10740135    26.540779    1894.7018 
  130000   -452.49916    3002.9719 1.0153187e+11    18695.668    596.71818    19.328813   -1068.5462            0   0.10740135    26.540779    1897.9057 
  131000   -452.42646    3024.2116 1.0335427e+11    18695.668    595.20784    19.931518   -1067.5658            0   0.10740135    26.540779    1904.8965 
  132000   -452.32286    3038.9429 1.0361582e+11    18695.668    597.15777     19.59509   -1069.0757            0   0.10740135    26.540779    1872.6329 
  133000    -451.8873    2983.7193 1.029834e+11    18695.668    596.63158    20.051037   -1068.5699            0   0.10740135    26.540779    1855.9872 
  134000   -452.22792    3092.0566 1.0523978e+11    18695.668    594.38007    20.396741   -1067.0047            0   0.10740135    26.540779    1915.2571 
  135000   -452.30095    3144.0078 1.0616331e+11    18695.668    595.25241    20.049168   -1067.6025            0   0.10740135    26.540779    1916.8349 
  136000   -451.88259    3092.4113 1.0037182e+11    18695.668    599.87467    19.225052   -1070.9823            0   0.10740135    26.540779    1912.5585 
  137000   -452.19245    3194.2668 1.0478871e+11    18695.668    594.90364    20.019407   -1067.1155            0   0.10740135    26.540779    1990.5256 
  138000    -451.9297    3175.4605 1.0540073e+11    18695.668    594.18344    20.422068   -1066.5352            0   0.10740135    26.540779    1918.2091 
  139000   -451.48009    3117.2772 1.0409908e+11    18695.668    595.90155     20.22647   -1067.6081            0   0.10740135    26.540779    1986.6011 
  140000   -451.98214    3259.6322 1.0263895e+11    18695.668    599.75367    19.562233    -1071.298            0   0.10740135    26.540779    1973.3627 
  141000   -451.75226    3247.7522 1.0649058e+11    18695.668    594.24735    20.302362    -1066.302            0   0.10740135    26.540779    2033.5685 
  142000   -451.50747    3232.7308 1.0317678e+11    18695.668    595.26294    20.398999   -1067.1694            0   0.10740135    26.540779     1995.193 
  143000   -451.80036    3331.0111 1.0456998e+11    18695.668    597.44427    19.905074   -1069.1497            0   0.10740135    26.540779    2065.6221 
  144000   -451.60501    3326.4054 1.0544483e+11    18695.668    596.25554    20.124177   -1067.9847            0   0.10740135    26.540779    2043.5694 
  145000   -451.43813    3327.8027 1.0553769e+11    18695.668     594.5535    20.357454   -1066.3491            0   0.10740135    26.540779    2012.8792 
  146000   -451.17115     3308.104 1.0586706e+11    18695.668    595.62828    20.222399   -1067.0218            0   0.10740135    26.540779    2067.0752 
  147000   -451.40264    3393.4443 1.0326438e+11    18695.668    597.88755     19.94296   -1069.2331            0   0.10740135    26.540779    2055.4858 
  148000   -451.03652    3352.8558 1.087361e+11    18695.668    595.38332    20.523159    -1066.943            0   0.10740135    26.540779       2063.7 
  149000   -450.86583    3353.4464 1.0533153e+11    18695.668    595.79334     20.37024   -1067.0294            0   0.10740135    26.540779    2112.3988 
  150000   -451.29071    3479.5416 1.0133649e+11    18695.668    598.60499    19.289682   -1069.1854            0   0.10740135    26.540779    2201.9601 
  151000   -450.97058    3448.6443 1.0934245e+11    18695.668    593.87213    20.629053   -1065.4718            0   0.10740135    26.540779    2178.7875 
  152000   -450.91158    3472.7714 1.0544646e+11    18695.668     594.2799    20.396637   -1065.5881            0   0.10740135    26.540779    2186.7314 
  153000   -450.66399     3457.159 1.0556337e+11    18695.668    594.83004    20.443778   -1065.9378            0   0.10740135    26.540779    2169.9724 
  154000   -450.76473    3514.9491 1.0735244e+11    18695.668    595.39611    20.421191    -1066.582            0   0.10740135    26.540779    2187.1877 
  155000    -450.8545    3570.4256 1.0496718e+11    18695.668    596.69812    20.127279   -1067.6799            0   0.10740135    26.540779    2214.0992 
  156000   -450.57992    3549.1264 1.0540999e+11    18695.668    596.52326    19.921104   -1067.0243            0   0.10740135    26.540779    2116.5751 
  157000   -450.52079    3573.2278 1.0880791e+11    18695.668    594.89275    20.847054   -1066.2606            0   0.10740135    26.540779    2162.5991 
  158000   -450.52613     3610.914 1.0688523e+11    18695.668     594.0484    20.464109   -1065.0386            0   0.10740135    26.540779    2155.9978 
  159000   -450.17626    3573.7484 1.0581628e+11    18695.668    595.21878     20.45281   -1065.8479            0   0.10740135    26.540779    2171.8919 
  160000   -450.23994    3623.7274 1.0893634e+11    18695.668     594.6934    20.732072   -1065.6654            0   0.10740135    26.540779    2243.6992 
  161000   -449.96275    3601.8785 1.0677814e+11    18695.668    597.25051    20.500372   -1067.7136            0   0.10740135    26.540779    2237.6043 
  162000   -450.39513    3729.5527 1.0763247e+11    18695.668    593.61771    20.719494   -1064.7323            0   0.10740135    26.540779    2321.9436 
  163000   -450.02721    3688.5829 1.1033951e+11    18695.668     596.4652    20.757791   -1067.2502            0   0.10740135    26.540779    2252.5272 
  164000   -449.69798    3655.7684 1.0582438e+11    18695.668    596.24162    20.731932   -1066.6715            0   0.10740135    26.540779     2282.234 
  165000   -449.78081    3709.7835 1.0949518e+11    18695.668    593.41136     21.05321   -1064.2454            0   0.10740135    26.540779    2338.3808 
  166000   -449.63946    3716.5574 1.0708172e+11    18695.668    598.90146    20.319158   -1068.8601            0   0.10740135    26.540779    2304.3286 
  167000   -449.51636    3727.1788 1.0620726e+11    18695.668    595.20224    20.767763   -1065.4864            0   0.10740135    26.540779    2313.3159 
  168000   -449.64202    3790.2198 1.0902374e+11    18695.668    595.55478    21.041337   -1066.2381            0   0.10740135    26.540779      2347.37 
  169000   -449.40652    3777.1544 1.0884614e+11    18695.668    596.67272    20.938544   -1067.0178            0   0.10740135    26.540779    2330.1908 
  170000   -449.61661    3857.9878 1.0945197e+11    18695.668    592.44109    21.307794   -1063.3655            0   0.10740135    26.540779    2383.1623 
  171000   -449.68248    3908.4302 1.0857565e+11    18695.668    594.05232    20.873539   -1064.6083            0   0.10740135    26.540779    2374.6377 
  172000   -449.62763    3933.4317 1.1119766e+11    18695.668    593.75923    21.154133    -1064.541            0   0.10740135    26.540779    2390.2895 
  173000   -448.99544    3836.7752 1.0887629e+11    18695.668    594.20184    21.017371   -1064.2147            0   0.10740135    26.540779    2354.1095 
  174000   -448.89763    3852.7248 1.0754711e+11    18695.668     595.4707    21.078517   -1065.4468            0   0.10740135    26.540779    2389.8494 
  175000   -448.66147    3839.5203 1.1369449e+11    18695.668    592.96359    21.816272   -1063.4413            0   0.10740135    26.540779    2333.0354 
  176000   -448.75772    3896.3634 1.0529178e+11    18695.668    596.49644    20.760916   -1066.0151            0   0.10740135    26.540779    2407.3298 
  177000   -448.85398    3953.2078 1.0914581e+11    18695.668    597.86854     20.98684   -1067.7094            0   0.10740135    26.540779    2382.8142 
  178000   -449.03621     4028.171 1.1227985e+11    18695.668    594.32486    21.161017   -1064.5221            0   0.10740135    26.540779    2412.4483 
  179000   -448.79701    4014.3264 1.0819082e+11    18695.668    592.91264    21.288958   -1062.9986            0   0.10740135    26.540779     2486.167 
  180000   -448.78928    4049.2581 1.1073326e+11    18695.668    595.00121    20.990025   -1064.7805            0   0.10740135    26.540779     2426.328 
  181000   -448.69482    4065.9148 1.1266565e+11    18695.668    592.82531    21.252099   -1062.7722            0   0.10740135    26.540779    2532.4156 
  182000   -448.40929    4042.3079 1.065217e+11    18695.668    596.62248    20.876376   -1065.9082            0   0.10740135    26.540779    2463.3639 
  183000   -448.30715    4057.3445 1.1213037e+11    18695.668    595.72008    21.356471   -1065.3837            0   0.10740135    26.540779    2459.5873 
  184000   -448.35099    4103.1441 1.1340626e+11    18695.668    590.47995    21.939575   -1060.7705            0   0.10740135    26.540779    2524.4569 
  185000   -448.31487    4132.0938 1.075369e+11    18695.668    596.08939    20.988313   -1065.3926            0   0.10740135    26.540779     2562.622 
  186000   -447.94346    4090.3894 1.1215199e+11    18695.668    596.70533    21.604207    -1066.253            0   0.10740135    26.540779    2517.1536 
  187000   -447.86589    4110.6056 1.1349745e+11    18695.668    592.25466    21.717312   -1061.8379            0   0.10740135    26.540779    2477.7119 
  188000    -447.8322    4140.0664  1.08946e+11    18695.668     594.8925    21.384306    -1064.109            0   0.10740135    26.540779    2498.8002 
  189000   -447.75877    4161.1546 1.1205506e+11    18695.668    595.81685    21.627442   -1065.2031            0   0.10740135    26.540779    2494.9191 
  190000   -448.26831    4305.0893 1.1297812e+11    18695.668    594.08459    21.379061    -1063.732            0   0.10740135    26.540779    2550.7815 
  191000   -447.72544    4227.2529 1.1169733e+11    18695.668    595.05297    21.535634    -1064.314            0   0.10740135    26.540779    2521.4954 
  192000   -447.33503    4181.5443 1.1521826e+11    18695.668    591.33811    22.423615   -1061.0968            0   0.10740135    26.540779     2609.794 
  193000   -447.41468    4234.8906 1.0953332e+11    18695.668    595.39117    21.654159     -1064.46            0   0.10740135    26.540779    2632.8761 
  194000   -446.91884    4166.9644 1.1159826e+11    18695.668    597.03499     21.70038   -1065.6542            0   0.10740135    26.540779    2521.3912 
  195000   -447.46202    4317.9881 1.1206587e+11    18695.668    594.19682     21.63566   -1063.2945            0   0.10740135    26.540779    2607.6442 
  196000   -446.81798    4218.8319 1.141989e+11    18695.668    594.58791     22.15314    -1063.559            0   0.10740135    26.540779    2551.9383 
  197000   -447.69249    4439.6776 1.1263983e+11    18695.668    594.04904    21.480868   -1063.2224            0   0.10740135    26.540779     2697.299 
  198000   -447.15513    4363.0006 1.1245623e+11    18695.668    594.23186    21.865509   -1063.2525            0   0.10740135    26.540779    2686.5158 
  199000    -447.0852    4384.8273 1.1553041e+11    18695.668    593.19156    22.106666   -1062.3834            0   0.10740135    26.540779    2627.6221 
  200000   -447.14146    4433.2428 1.1221329e+11    18695.668    596.33794    21.670735   -1065.1501            0   0.10740135    26.540779    2616.0804 
  201000   -447.11741    4464.7363 1.1565874e+11    18695.668    590.05544    22.282252   -1059.4551            0   0.10740135    26.540779    2699.3551 
  202000   -446.73349    4420.3953 1.1323866e+11    18695.668    595.52011    21.893216   -1064.1468            0   0.10740135    26.540779    2634.4593 
  203000   -446.94176    4500.8442 1.119942e+11    18695.668    593.90753    21.796697    -1062.646            0   0.10740135    26.540779    2734.6326 
  204000   -446.39178    4421.5109 1.164047e+11    18695.668    593.25629    22.568912    -1062.217            0   0.10740135    26.540779    2683.8828 
  205000   -446.35478     4450.274 1.1209731e+11    18695.668    593.45216     22.24705    -1062.054            0   0.10740135    26.540779    2661.5579 
  206000   -446.57565    4533.3794 1.1467288e+11    18695.668    594.05792    22.308056   -1062.9416            0   0.10740135    26.540779    2707.4844 
  207000    -446.7979    4616.7745 1.1597513e+11    18695.668     593.4678    22.087873   -1062.3536            0   0.10740135    26.540779     2814.527 
  208000   -446.12539    4511.6202 1.1559113e+11    18695.668    592.40552     22.57311    -1061.104            0   0.10740135    26.540779    2684.7299 
  209000   -446.56283    4640.3622 1.1444893e+11    18695.668    594.21285    22.211078   -1062.9868            0   0.10740135    26.540779    2802.4971 
  210000   -446.93646    4755.6557 1.1473271e+11    18695.668    593.17458    22.089196   -1062.2002            0   0.10740135    26.540779    2869.0242 
  211000   -446.07016    4609.6654 1.2112689e+11    18695.668    592.36816    22.818084   -1061.2564            0   0.10740135    26.540779    2768.7273 
  212000    -445.8218      4593.89 1.1311274e+11    18695.668    594.99861     22.28235   -1063.1028            0   0.10740135    26.540779    2822.8334 
  213000   -445.69331    4603.3744 1.1413233e+11    18695.668    595.43984    22.277258   -1063.4104            0   0.10740135    26.540779    2813.9474 
  214000   -445.98399    4701.1906 1.1424149e+11    18695.668    594.82402    22.283889   -1063.0919            0   0.10740135    26.540779    2844.2762 
  215000   -446.13495     4769.563 1.1566259e+11    18695.668    592.88478    22.451127   -1061.4709            0   0.10740135    26.540779    2919.9947 
  216000   -445.43046    4657.6693 1.1458688e+11    18695.668    593.50295    22.570636    -1061.504            0   0.10740135    26.540779    2923.2648 
  217000   -445.85628    4783.9632 1.1550799e+11    18695.668    595.86571    21.869867   -1063.5919            0   0.10740135    26.540779    2959.2412 
  218000   -445.14949     4671.584 1.1619416e+11    18695.668    593.77784    22.953553   -1061.8809            0   0.10740135    26.540779    2812.1877 
  219000   -445.02984    4682.9317 1.1795327e+11    18695.668     590.6239    23.213953   -1058.8677            0   0.10740135    26.540779    2920.7728 
  220000   -445.87715    4898.0429 1.1666143e+11    18695.668    594.27739    22.350156   -1062.5047            0   0.10740135    26.540779    3008.9432 
  221000   -445.82349    4923.2957 1.1669774e+11    18695.668    594.49467    22.634264   -1062.9524            0   0.10740135    26.540779    3104.8185 
  222000   -444.96054    4778.0105 1.1925873e+11    18695.668    591.00383    23.357117   -1059.3215            0   0.10740135    26.540779    3032.0715 
  223000   -445.07515     4838.723 1.1430903e+11    18695.668    595.71759    22.464059   -1063.2568            0   0.10740135    26.540779    2980.0692 
  224000    -444.9889    4857.1107 1.1634393e+11    18695.668    595.39315    22.520019   -1062.9021            0   0.10740135    26.540779    2953.5868 
  225000   -445.25114    4948.9313 1.1954328e+11    18695.668    590.34518    23.270756   -1058.8671            0   0.10740135    26.540779    3049.2328 
  226000   -444.80364    4891.1922 1.1578926e+11    18695.668    592.19883    23.047621   -1060.0501            0   0.10740135    26.540779    2920.5395 
  227000   -444.36316    4834.9338 1.1987284e+11    18695.668    594.01527    23.096885   -1061.4753            0   0.10740135    26.540779    2927.2444 
  228000   -445.07398    5021.2824 1.1906095e+11    18695.668    593.59726    22.898726     -1061.57            0   0.10740135    26.540779    3100.1567 
  229000   -444.55503    4948.4876 1.1514287e+11    18695.668    594.10188    22.623118     -1061.28            0   0.10740135    26.540779    3071.1582 
  230000   -444.85553    5048.3718 1.2189129e+11    18695.668    592.67786    23.464251   -1060.9976            0   0.10740135    26.540779    3030.5527 
  231000   -444.25137     4957.621 1.175992e+11    18695.668    590.31417    23.742703   -1058.3082            0   0.10740135    26.540779    3018.1814 
  232000   -444.20218    4983.8169 1.1494729e+11    18695.668    594.73336     22.57423   -1061.5098            0   0.10740135    26.540779    3004.0927 
  233000   -444.92958    5173.6605 1.1782825e+11    18695.668    599.24013    21.991588   -1066.1613            0   0.10740135    26.540779    3143.6477 
  234000   -444.92791    5209.8683 1.2213442e+11    18695.668    588.67616    23.504024   -1057.1081            0   0.10740135    26.540779    3196.1015 
  235000   -444.05297    5062.0575 1.197109e+11    18695.668     591.5956     23.85453   -1059.5031            0   0.10740135    26.540779    3077.0356 
  236000   -443.94645    5076.1713 1.1737969e+11    18695.668    594.03137    23.416668   -1061.3945            0   0.10740135    26.540779    3109.6957 
  237000   -443.83875    5090.0377 1.2229454e+11    18695.668    594.64206    23.574638   -1062.0554            0   0.10740135    26.540779    3118.1156 
  238000   -444.07023    5175.3782 1.1780709e+11    18695.668    594.93574    22.916327   -1061.9223            0   0.10740135    26.540779    3156.6121 
  239000   -443.83715    5162.8235  1.18213e+11    18695.668    595.05883    23.480941   -1062.3769            0   0.10740135    26.540779    3186.9912 
  240000    -443.4025    5107.7917 1.2294086e+11    18695.668    593.15792    23.846215   -1060.4066            0   0.10740135    26.540779    3166.1536 
  241000   -443.78583    5225.1304 1.2182086e+11    18695.668    589.49665     24.27159   -1057.5541            0   0.10740135    26.540779    3205.6245 
  242000   -444.13738    5335.7736 1.1842329e+11    18695.668    596.53281    22.929308   -1063.5995            0   0.10740135    26.540779    3260.6347 
  243000   -443.52183    5242.6218 1.1950258e+11    18695.668    595.53106    22.696866   -1061.7498            0   0.10740135    26.540779    3124.1749 
  244000   -443.61877    5299.6101 1.1992899e+11    18695.668    594.37802    23.367347   -1061.3641            0   0.10740135    26.540779    3253.3693 
  245000   -442.90192    5185.1143 1.2246759e+11    18695.668    593.29118    24.238267   -1060.4314            0   0.10740135    26.540779    3106.3938 
  246000   -443.24067     5293.057 1.2005491e+11    18695.668     591.6199    23.976188   -1058.8368            0   0.10740135    26.540779     3240.148 
  247000   -443.79284    5445.9754 1.2225365e+11    18695.668    595.44121    23.268763   -1062.5028            0   0.10740135    26.540779    3388.8919 
  248000   -443.58012    5437.7102 1.2001435e+11    18695.668    594.85356    23.410244   -1061.8439            0   0.10740135    26.540779    3368.9719 
  249000   -442.50727    5248.1931 1.218564e+11    18695.668    592.52767    24.721571   -1059.7565            0   0.10740135    26.540779     3228.483 
  250000    -442.8311    5352.9943 1.2273492e+11    18695.668    593.19561    24.202502   -1060.2292            0   0.10740135    26.540779    3228.3979 
  251000   -442.47321    5314.1399 1.2222851e+11    18695.668    592.20432     24.36742    -1059.045            0   0.10740135    26.540779    3192.4193 
  252000   -442.61289    5380.1338 1.1956095e+11    18695.668    594.89223     24.09625   -1061.6014            0   0.10740135    26.540779    3238.1219 
  253000   -443.54484     5613.083 1.262649e+11    18695.668    594.41532    23.685256   -1061.6454            0   0.10740135    26.540779    3410.9002 
  254000   -442.81088    5494.9771 1.1883207e+11    18695.668    597.92113    23.506933   -1064.2389            0   0.10740135    26.540779    3377.3539 
  255000   -442.48417    5462.6934 1.2428999e+11    18695.668    592.45864    24.685498   -1059.6283            0   0.10740135    26.540779    3329.1241 
  256000   -441.77786    5350.4171 1.2419755e+11    18695.668    592.70858    24.798147   -1059.2846            0   0.10740135    26.540779    3146.9147 
  257000   -442.09709    5454.2462 1.2117746e+11    18695.668    593.95872    24.538734   -1060.5945            0   0.10740135    26.540779    3262.4388 
  258000   -442.00872    5472.1852  1.25243e+11    18695.668     596.6697    24.368515   -1063.0469            0   0.10740135    26.540779    3379.3859 
  259000   -442.54893    5622.5844 1.2277155e+11    18695.668    598.06039    23.818338   -1064.4277            0   0.10740135    26.540779    3393.0644 
  260000   -441.80386    5502.1387 1.2135266e+11    18695.668    592.22084    24.487095   -1058.5118            0   0.10740135    26.540779    3280.5425 
  261000   -441.96518    5572.6935 1.2779209e+11    18695.668    595.08275    24.355245   -1061.4032            0   0.10740135    26.540779    3304.8643 
  262000   -441.25717    5460.0595 1.2033626e+11    18695.668    596.27449     24.15261   -1061.6843            0   0.10740135    26.540779    3296.6515 
  263000    -442.2541    5706.7006 1.2420344e+11    18695.668    594.01527    24.347922   -1060.6173            0   0.10740135    26.540779    3514.7659 
  264000   -441.31049    5544.4191 1.2965135e+11    18695.668    596.57756    24.869209   -1062.7573            0   0.10740135    26.540779    3271.5896 
  265000    -441.3042    5579.6552 1.1913664e+11    18695.668    592.47186    24.518628   -1058.2947            0   0.10740135    26.540779    3316.9123 
  266000   -441.10783    5574.8337 1.2800188e+11    18695.668    593.58599    25.162584   -1059.8564            0   0.10740135    26.540779     3345.701 
  267000   -441.13962    5618.0948 1.2620222e+11    18695.668    596.30148    24.718035   -1062.1591            0   0.10740135    26.540779    3382.7123 
  268000   -441.22514    5672.6787 1.2201915e+11    18695.668    593.03346    24.785624   -1059.0442            0   0.10740135    26.540779    3481.8224 
  269000   -441.44797    5756.1951 1.2765967e+11    18695.668    593.34248    25.106502    -1059.897            0   0.10740135    26.540779     3516.339 
  270000    -441.0462    5708.0913 1.2431271e+11    18695.668    596.26138    24.470101   -1061.7777            0   0.10740135    26.540779    3406.7438 
  271000   -440.36894    5601.9386 1.2052266e+11    18695.668     594.9079    24.743503   -1060.0203            0   0.10740135    26.540779    3455.9924 
  272000   -441.82424    5945.1693 1.2782188e+11    18695.668    590.09468    25.434199   -1057.3531            0   0.10740135    26.540779    3691.1757 
  273000   -441.22039     5854.482 1.2430042e+11    18695.668    593.85419    24.791095   -1059.8657            0   0.10740135    26.540779    3618.5751 
  274000   -440.91746     5827.208 1.2515999e+11    18695.668     592.9293    25.090199    -1058.937            0   0.10740135    26.540779    3570.5355 
  275000   -440.93701    5867.8897 1.2870038e+11    18695.668     590.6446    25.565291   -1057.1469            0   0.10740135    26.540779    3634.0305 
  276000   -441.73381    6072.3557 1.2375157e+11    18695.668    595.04097      24.5127   -1061.2875            0   0.10740135    26.540779     3664.515 
  277000   -440.91854     5937.119 1.2761851e+11    18695.668    597.46842    24.435987    -1062.823            0   0.10740135    26.540779    3679.8014 
  278000   -440.24865    5832.5168 1.312711e+11    18695.668    590.70859    25.844641   -1056.8019            0   0.10740135    26.540779    3527.3521 
  279000    -440.8283    5991.2259 1.225839e+11    18695.668    590.93346    25.135281    -1056.897            0   0.10740135    26.540779    3642.9363 
  280000   -440.46402    5951.0229 1.2609463e+11    18695.668    593.61136    24.987577    -1059.063            0   0.10740135    26.540779     3596.202 
  281000   -440.82663    6063.9955 1.2751166e+11    18695.668    595.57091     24.40923   -1060.8068            0   0.10740135    26.540779    3699.2379 
  282000   -440.07673    5942.5327 1.2718267e+11    18695.668    591.22141    25.441631   -1056.7398            0   0.10740135    26.540779    3527.3874 
  283000   -439.48745    5854.9187 1.2763928e+11    18695.668    592.41412    25.476092   -1057.3777            0   0.10740135    26.540779    3499.3135 
  284000   -439.77916    5952.9488 1.2900137e+11    18695.668     594.1232    25.084847   -1058.9872            0   0.10740135    26.540779    3640.5648 
  285000   -439.99702    6035.4195 1.2323676e+11    18695.668    596.33664    24.557213   -1060.8909            0   0.10740135    26.540779    3641.6281 
  286000   -439.49146    5965.4462 1.282333e+11    18695.668    590.27255    26.128123   -1055.8921            0   0.10740135    26.540779     3660.885 
  287000   -439.33448    5968.9276 1.2943989e+11    18695.668    593.00029    25.680803   -1058.0156            0   0.10740135    26.540779    3604.9331 
  288000   -439.60197    6061.8553 1.2374028e+11    18695.668    597.49966    24.383943   -1061.4856            0   0.10740135    26.540779    3573.9142 
  289000   -440.20504    6225.5003 1.2779303e+11    18695.668    592.18938    25.173346   -1057.5678            0   0.10740135    26.540779    3756.4747 
  290000   -439.39532    6091.4322 1.2902043e+11    18695.668    595.30587    25.069814    -1059.771            0   0.10740135    26.540779     3670.489 
  291000   -439.55477    6161.5931 1.2668067e+11    18695.668     591.9684     25.22687     -1056.75            0   0.10740135    26.540779    3735.9446 
  292000   -439.84913    6260.1818 1.2990834e+11    18695.668    591.48007    25.931786    -1057.261            0   0.10740135    26.540779     3860.845 
  293000    -439.5649    6236.8508 1.2551397e+11    18695.668    594.03142    25.083667     -1058.68            0   0.10740135    26.540779    3825.7065 
  294000   -439.51829    6263.5903 1.269601e+11    18695.668    594.19361    25.269476   -1058.9814            0   0.10740135    26.540779    3782.9517 
  295000   -439.11855    6215.9131 1.3180228e+11    18695.668    590.44012    26.530907   -1056.0896            0   0.10740135    26.540779    3710.3796 
  296000   -438.55969    6134.7091 1.2730382e+11    18695.668    591.79682    26.371128   -1056.7276            0   0.10740135    26.540779    3694.3303 
  297000   -438.69838    6200.4952 1.2926033e+11    18695.668    593.95172    25.663737   -1058.3138            0   0.10740135    26.540779    3756.9501 
  298000    -439.2833    6360.3148 1.2544626e+11    18695.668    599.36786    24.574533   -1063.2257            0   0.10740135    26.540779    3899.9999 
  299000    -438.1741    6163.1386 1.2990023e+11    18695.668    591.17954    26.305011   -1055.6587            0   0.10740135    26.540779    3827.1882 
  300000   -438.38078    6243.2527 1.3155687e+11    18695.668    587.83251    26.620867   -1052.8342            0   0.10740135    26.540779    3886.3207 
  301000   -439.17012    6446.1484 1.274939e+11    18695.668    595.86597    25.518596   -1060.5547            0   0.10740135    26.540779    3856.3956 
  302000   -438.52888    6347.5841 1.3054857e+11    18695.668    591.40716    26.429407   -1056.3654            0   0.10740135    26.540779    3761.9425 
  303000   -437.93541    6259.0867 1.3047365e+11    18695.668     593.4027    26.603945   -1057.9421            0   0.10740135    26.540779    3690.3825 
  304000   -438.44211    6402.4206 1.2713054e+11    18695.668    593.58801    25.874966   -1057.9051            0   0.10740135    26.540779    3779.9632 
  305000   -438.21427    6390.9708 1.3468537e+11    18695.668    592.00537    26.539162   -1056.7588            0   0.10740135    26.540779    3857.1411 
  306000   -438.82191    6555.5778 1.3128661e+11    18695.668    592.12149    25.827975   -1056.7714            0   0.10740135    26.540779    3949.9177 
  307000   -438.77296    6581.8238 1.2707509e+11    18695.668    590.31318    25.976815    -1055.063            0   0.10740135    26.540779    3974.9318 
  308000   -438.70969     6605.053 1.3372462e+11    18695.668    590.89785    26.168713   -1055.7763            0   0.10740135    26.540779    3999.4428 
  309000   -438.81705    6664.2361 1.286455e+11    18695.668    591.83387    25.704606   -1056.3555            0   0.10740135    26.540779    4025.8655 
  310000   -438.23538    6578.2236 1.2858961e+11    18695.668    591.96762    26.068693   -1056.2717            0   0.10740135    26.540779    3952.1801 
  311000   -438.11476    6589.3676 1.3479011e+11    18695.668    591.49588     26.57847   -1056.1891            0   0.10740135    26.540779    3958.7329 
  312000   -437.37171    6469.3508 1.277517e+11    18695.668    593.00088     26.32087   -1056.6935            0   0.10740135    26.540779    3952.2687 
  313000   -437.91582    6620.5689 1.3333708e+11    18695.668    589.28241    27.195798    -1054.394            0   0.10740135    26.540779    3954.3027 
  314000    -437.5455    6579.0939 1.3260021e+11    18695.668    591.84899     26.54614   -1055.9406            0   0.10740135    26.540779    3995.0206 
  315000   -438.15994    6745.1334 1.2784271e+11    18695.668    593.90859    25.688607   -1057.7571            0   0.10740135    26.540779    4015.0168 
  316000   -437.61338    6666.5197 1.3705939e+11    18695.668    589.68545     27.33364   -1054.6325            0   0.10740135    26.540779    4077.2043 
  317000   -437.05387    6585.1768 1.3352569e+11    18695.668    591.86645    27.191632    -1056.112            0   0.10740135    26.540779    3982.0266 
  318000   -436.74465    6556.5792 1.3125605e+11    18695.668    592.74272    26.387418   -1055.8748            0   0.10740135    26.540779    3986.2455 
  319000   -437.14159    6676.7852 1.3398084e+11    18695.668    593.21175    26.227249   -1056.5806            0   0.10740135    26.540779     4018.459 
  320000    -437.2951    6745.6946 1.2875501e+11    18695.668    591.81506    26.062707   -1055.1729            0   0.10740135    26.540779    4068.4531 
  321000   -437.38422     6801.036 1.3370422e+11    18695.668    592.14873    26.447745   -1055.9807            0   0.10740135    26.540779    4154.7911 
  322000   -436.81071    6716.7431 1.363145e+11    18695.668    589.48118    27.678581   -1053.9705            0   0.10740135    26.540779    4058.9115 
  323000   -436.82051    6755.3706 1.3709391e+11    18695.668    586.80985    27.834942   -1051.4653            0   0.10740135    26.540779    4136.5273 
  324000   -436.18298    6657.5878 1.3230923e+11    18695.668    590.31594    27.133286   -1053.6322            0   0.10740135    26.540779    4057.6756 
  325000   -436.91729    6848.8866 1.3338836e+11    18695.668    594.18389    26.272748   -1057.3739            0   0.10740135    26.540779    4186.7026 
  326000   -436.76392    6853.1282 1.332894e+11    18695.668    589.73652    26.910728   -1053.4112            0   0.10740135    26.540779    4318.0742 
  327000   -437.00928    6941.3921 1.3372506e+11    18695.668    590.56743    26.777085   -1054.3538            0   0.10740135    26.540779    4228.8181 
  328000   -435.81637    6726.5763 1.406393e+11    18695.668    588.44001    27.621695   -1051.8781            0   0.10740135    26.540779    3999.2378 
  329000   -436.35629    6876.9134 1.289389e+11    18695.668    593.84312    26.341707   -1056.5411            0   0.10740135    26.540779    4156.5614 
  330000    -436.9812    7045.1599 1.2701909e+11    18695.668     596.1113    26.005127   -1059.0976            0   0.10740135    26.540779    4235.6954 
  331000   -435.85791    6845.0145 1.3548898e+11    18695.668    589.89823    27.129219   -1052.8854            0   0.10740135    26.540779    4289.3749 
  332000   -436.68531    7055.9295 1.3504771e+11    18695.668    594.20139    26.579806   -1057.4665            0   0.10740135    26.540779    4209.6226 
  333000     -435.565    6856.4125 1.283748e+11    18695.668    592.63069    26.741179   -1054.9369            0   0.10740135    26.540779    4269.0266 
  334000   -435.42474    6863.4177 1.3580595e+11    18695.668      592.843    27.271686   -1055.5394            0   0.10740135    26.540779    4266.0624 
  335000   -436.85459    7201.2859 1.346929e+11    18695.668    588.58318    27.234027   -1052.6718            0   0.10740135    26.540779    4307.9969 
  336000   -434.91762    6829.6755 1.3443342e+11    18695.668    593.09166    27.448547   -1055.4578            0   0.10740135    26.540779     4046.691 
  337000   -436.24521    7145.9951 1.3406372e+11    18695.668    591.01697    26.929867    -1054.192            0   0.10740135    26.540779    4309.0558 
  338000   -436.12569    7157.3696 1.3672854e+11    18695.668    591.79852    26.985102   -1054.9093            0   0.10740135    26.540779    4231.9661 
  339000   -435.81076     7127.569 1.3376634e+11    18695.668      588.576    27.276378   -1051.6631            0   0.10740135    26.540779    4382.8869 
  340000    -435.6082    7121.4442 1.3598849e+11    18695.668    588.86563    27.579216    -1052.053            0   0.10740135    26.540779    4447.5757 
  341000   -435.62291    7161.1045 1.3494498e+11    18695.668    591.96601    27.042239   -1054.6312            0   0.10740135    26.540779    4276.9459 
  342000   -435.78015    7230.8012 1.3682692e+11    18695.668    589.55891    27.655242   -1052.9943            0   0.10740135    26.540779    4315.4276 
  343000   -435.22344    7150.0492 1.3638395e+11    18695.668     589.8654    27.848262   -1052.9371            0   0.10740135    26.540779    4384.7119 
  344000   -434.96902    7132.9969 1.3477368e+11    18695.668    592.75236    27.280315   -1055.0017            0   0.10740135    26.540779    4257.1492 
  345000   -436.01864    7390.7391 1.3923984e+11    18695.668    591.81581    27.252466   -1055.0869            0   0.10740135    26.540779    4342.6918 
  346000    -435.0724    7227.9041 1.3831749e+11    18695.668    590.15858    27.778629   -1053.0096            0   0.10740135    26.540779    4335.4817 
  347000   -434.72297    7190.8306 1.3652794e+11    18695.668    591.30359    27.859393   -1053.8859            0   0.10740135    26.540779    4421.4169 
  348000   -435.90929    7477.3815 1.3765697e+11    18695.668    589.25554     27.78329   -1052.9481            0   0.10740135    26.540779    4547.8075 
  349000    -434.1306    7139.1268 1.3761894e+11    18695.668    589.98578    28.008753   -1052.1251            0   0.10740135    26.540779    4365.3341 
  350000   -435.32763    7427.9326 1.3676487e+11    18695.668    589.31326    27.897285   -1052.5382            0   0.10740135    26.540779    4520.2293 
  351000   -435.23689    7445.3738 1.3532488e+11    18695.668    588.78396    27.569139     -1051.59            0   0.10740135    26.540779    4668.3774 
  352000   -435.01269    7434.6889 1.4060265e+11    18695.668    588.14901    27.698567   -1050.8603            0   0.10740135    26.540779    4574.3825 
  353000   -434.68529    7402.2588 1.3880789e+11    18695.668    587.96632    28.106008   -1050.7576            0   0.10740135    26.540779    4493.0214 
  354000     -434.389    7376.3821 1.3513562e+11    18695.668    590.73666    28.072658   -1053.1983            0   0.10740135    26.540779    4519.1711 
  355000   -435.64628    7677.8863 1.3356743e+11    18695.668    591.19964    26.893955   -1053.7399            0   0.10740135    26.540779    4779.3891 
  356000   -434.63377    7501.0834 1.399123e+11    18695.668    590.22986    28.331855   -1053.1955            0   0.10740135    26.540779    4575.5578 
  357000   -435.17557    7651.8181 1.4159106e+11    18695.668    588.53606    28.251056   -1051.9627            0   0.10740135    26.540779    4720.8805 
  358000   -434.12606      7467.22 1.3820052e+11    18695.668    587.25331    28.742005   -1050.1214            0   0.10740135    26.540779    4503.1543 
  359000   -433.52899    7377.9623 1.3806969e+11    18695.668    589.41492    28.565938   -1051.5098            0   0.10740135    26.540779      4551.93 
  360000   -434.97567    7719.3778 1.434286e+11    18695.668    592.17259    27.633639   -1054.7819            0   0.10740135    26.540779     4736.461 
  361000   -434.64816    7686.9227 1.410024e+11    18695.668     589.6906    28.579865   -1052.9186            0   0.10740135    26.540779    4638.2636 
  362000   -433.69769    7523.1962 1.3724263e+11    18695.668     588.6199    28.225656   -1050.5433            0   0.10740135    26.540779    4507.7611 
  363000   -434.09846    7644.2104 1.4185288e+11    18695.668    591.54409    28.137062   -1053.7796            0   0.10740135    26.540779    4701.3913 
  364000   -434.23005     7708.501 1.4008647e+11    18695.668    592.41561    27.742871   -1054.3885            0   0.10740135    26.540779    4814.0533 
  365000   -434.13453    7724.9313 1.3547161e+11    18695.668    596.37347    27.225561   -1057.7336            0   0.10740135    26.540779    4727.2403 
  366000   -434.03352    7740.2088 1.4439017e+11    18695.668    589.10058    28.735958   -1051.8701            0   0.10740135    26.540779    4685.2038 
  367000   -433.53069     7670.808 1.4344271e+11    18695.668    586.43203    29.967765   -1049.9305            0   0.10740135    26.540779    4665.2886 
  368000   -433.12356    7621.5778 1.4523401e+11    18695.668      589.435    29.528293   -1052.0869            0   0.10740135    26.540779    4685.6593 
  369000   -433.52888    7743.5504 1.4238957e+11    18695.668    589.77071    28.659299   -1051.9589            0   0.10740135    26.540779    4639.3593 
  370000   -433.59362    7793.7544 1.3665847e+11    18695.668    591.59138    27.517461   -1052.7025            0   0.10740135    26.540779    4806.8761 
  371000   -433.96407    7908.3765 1.4348005e+11    18695.668    592.25977    28.400119    -1054.624            0   0.10740135    26.540779    4777.7959 
  372000   -433.33088      7811.51 1.4146718e+11    18695.668    587.00252    28.971391   -1049.3048            0   0.10740135    26.540779    4502.8023 
  373000   -433.85256    7958.0027 1.4641458e+11    18695.668    586.92268     29.54515   -1050.3204            0   0.10740135    26.540779    4726.2774 
  374000    -433.3675     7892.349 1.422601e+11    18695.668    593.07445    28.180446   -1054.6224            0   0.10740135    26.540779    4772.9561 
  375000   -432.88032    7826.2493 1.4295485e+11    18695.668    588.17951     29.43515    -1050.495            0   0.10740135    26.540779    4722.2077 
  376000   -432.84701    7855.7912 1.4342937e+11    18695.668    586.86203    29.644457   -1049.3535            0   0.10740135    26.540779    4709.7721 
  377000   -432.89136    7901.6964 1.4108689e+11    18695.668    593.42299    28.423972   -1054.7383            0   0.10740135    26.540779    4870.3564 
  378000   -433.68447    8105.3876 1.4098356e+11    18695.668    594.12763    27.573713   -1055.3858            0   0.10740135    26.540779    5075.2124 
  379000   -432.99877    7997.4544 1.3680757e+11    18695.668    592.32928     28.21796    -1053.546            0   0.10740135    26.540779     4891.107 
  380000   -433.05031    8044.8753 1.4411047e+11    18695.668    585.36356    29.272228   -1047.6861            0   0.10740135    26.540779    4914.2382 
  381000   -433.37653    8150.1816 1.3837701e+11    18695.668     594.1254    27.949016   -1055.4509            0   0.10740135    26.540779    4903.1286 
  382000   -432.62235     8027.817 1.4506039e+11    18695.668    585.44456    29.559666   -1047.6266            0   0.10740135    26.540779    4697.9364 
  383000   -431.49489    7826.7914 1.4496325e+11    18695.668    587.66665    30.076009   -1049.2375            0   0.10740135    26.540779    4853.1999 
  384000   -432.44571    8063.7156 1.394849e+11    18695.668    594.59727     28.11678   -1055.1598            0   0.10740135    26.540779    4870.5561 
  385000     -432.379     8086.221 1.4791297e+11    18695.668    589.45465    29.307158   -1051.1408            0   0.10740135    26.540779    4794.4435 
  386000   -432.48768     8145.682 1.458453e+11    18695.668    586.46015     30.04544   -1048.9933            0   0.10740135    26.540779    4993.3553 
  387000    -431.2908     7930.031 1.4467029e+11    18695.668    590.32372    29.695597   -1051.3101            0   0.10740135    26.540779    4757.3653 
  388000   -431.93789    8102.9483 1.4636968e+11    18695.668    588.90751    29.673921   -1050.5193            0   0.10740135    26.540779    4724.0887 
  389000   -431.36454     8018.692 1.4089545e+11    18695.668    591.26418    28.893556   -1051.5223            0   0.10740135    26.540779    4928.5937 
  390000   -432.20155    8231.6305 1.4282323e+11    18695.668    592.76802    28.793479   -1053.7631            0   0.10740135    26.540779    4896.3794 
  391000   -430.92701     7999.615 1.4281284e+11    18695.668      587.469    30.069794   -1048.4658            0   0.10740135    26.540779    4844.3719 
  392000   -431.71151    8201.4889 1.4456562e+11    18695.668    588.72595    29.265488   -1049.7029            0   0.10740135    26.540779    4784.5674 
  393000    -431.4976    8192.9725 1.4414009e+11    18695.668    588.42643    29.409043   -1049.3331            0   0.10740135    26.540779    4901.8676 
  394000   -431.92129    8318.8169 1.4528367e+11    18695.668    589.00571    28.905818   -1049.8328            0   0.10740135    26.540779    5049.8716 
  395000     -431.215    8206.5441 1.3993321e+11    18695.668    594.38792    28.841905   -1054.4448            0   0.10740135    26.540779    4988.2473 
  396000   -431.05707     8209.827 1.4236671e+11    18695.668    587.49409    30.005397   -1048.5566            0   0.10740135    26.540779    4904.9931 
  397000   -431.03652    8242.0588 1.5432762e+11    18695.668    585.59316    30.981384   -1047.6111            0   0.10740135    26.540779    4879.1149 
  398000   -430.91419    8252.8426 1.4536941e+11    18695.668    587.29762    29.852967   -1048.0648            0   0.10740135    26.540779    4989.1645 
  399000   -431.53747    8420.7444 1.4493175e+11    18695.668    592.50013    29.368963   -1053.4066            0   0.10740135    26.540779    5022.1299 
  400000   -430.26766    8189.7236 1.4713822e+11    18695.668    588.11685    30.458047   -1048.8426            0   0.10740135    26.540779    5023.7081 
  401000   -430.84971    8348.9363 1.454104e+11    18695.668    589.90407    30.412061   -1051.1658            0   0.10740135    26.540779    5076.0836 
  402000   -431.61901    8547.6107 1.4505205e+11    18695.668    587.00951     29.99782   -1048.6263            0   0.10740135    26.540779    5224.4632 
  403000   -431.56759    8573.3347 1.4645814e+11    18695.668    591.96664    28.864939   -1052.3992            0   0.10740135    26.540779    5162.5337 
  404000    -430.0119    8282.0723 1.4555281e+11    18695.668    591.24035    30.173741    -1051.426            0   0.10740135    26.540779    4920.8739 
  405000   -429.83072    8280.4538 1.4362056e+11    18695.668    592.70951    29.897085   -1052.4373            0   0.10740135    26.540779    5033.4232 
  406000   -430.38601    8434.0278 1.451778e+11    18695.668    588.01414    30.026951   -1048.4271            0   0.10740135    26.540779    5222.6562 
  407000   -430.55018    8505.1837 1.4617216e+11    18695.668    593.47806    29.782394   -1053.8106            0   0.10740135    26.540779    5051.1878 
  408000   -430.34562    8498.6404  1.47546e+11    18695.668    590.19103    29.883119   -1050.4198            0   0.10740135    26.540779    5027.8947 
  409000   -429.18267    8290.1344 1.4861656e+11    18695.668    587.44465    31.574047   -1048.2014            0   0.10740135    26.540779    4837.2163 
  410000   -429.43859    8380.6256 1.4955945e+11    18695.668    590.63538    31.113857   -1051.1878            0   0.10740135    26.540779    4904.4093 
  411000   -430.83538    8711.5294 1.4932775e+11    18695.668      588.811    29.629216   -1049.2756            0   0.10740135    26.540779    5274.4194 
  412000   -430.45042    8666.9677 1.4439071e+11    18695.668    592.77874     29.62924   -1052.8584            0   0.10740135    26.540779    5261.7834 
  413000   -429.20345    8440.7595 1.450875e+11    18695.668    591.91225    30.786553   -1051.9023            0   0.10740135    26.540779    5115.8134 
  414000   -429.74292    8591.0005 1.4564369e+11    18695.668    593.43033     30.36704   -1053.5403            0   0.10740135    26.540779    5242.5452 
  415000   -429.72597    8623.9902 1.4886531e+11    18695.668    590.67437    30.427153   -1050.8275            0   0.10740135    26.540779     5204.795 
  416000   -430.22532    8765.7774 1.4897991e+11    18695.668     590.6001    29.431122   -1050.2565            0   0.10740135    26.540779     5144.406 
  417000   -429.87384    8728.2725 1.5000427e+11    18695.668    586.14881    30.970553   -1046.9932            0   0.10740135    26.540779    5316.2446 
  418000   -429.16319    8615.0819 1.490315e+11    18695.668     592.4255    30.525692   -1052.1144            0   0.10740135    26.540779     5071.133 
  419000   -428.79413    8573.8718 1.4581486e+11    18695.668     591.3474    30.772799   -1050.9143            0   0.10740135    26.540779    5111.7973 
  420000   -430.85322     9044.337 1.4647605e+11    18695.668    592.75799    29.788601   -1053.3998            0   0.10740135    26.540779    5419.1994 
  421000   -429.73427    8845.1037 1.5321485e+11    18695.668    586.48584    31.800706   -1048.0208            0   0.10740135    26.540779     5314.031 
  422000   -428.90698    8707.3373 1.5002316e+11    18695.668    589.55782    30.881395   -1049.3462            0   0.10740135    26.540779    5457.6806 
  423000   -428.71468    8703.3738 1.4395791e+11    18695.668    594.30283    29.990875   -1053.0084            0   0.10740135    26.540779    5349.3075 
  424000   -429.23025    8848.5801 1.4807881e+11    18695.668    589.96599    30.913627   -1050.1099            0   0.10740135    26.540779    5354.1414 
  425000   -429.30415    8900.7144 1.5083988e+11    18695.668    586.95763    30.856047   -1047.1178            0   0.10740135    26.540779    5321.3411 
  426000   -428.31798    8729.4639 1.4996845e+11    18695.668    590.86794    30.886199   -1050.0721            0   0.10740135    26.540779    5182.2891 
  427000   -429.37534    8988.8366 1.5272609e+11    18695.668    585.46781    31.423493   -1046.2666            0   0.10740135    26.540779    5370.0091 
  428000   -428.00911    8737.5002 1.5047342e+11    18695.668    590.47576    31.403543   -1049.8884            0   0.10740135    26.540779    5212.9689 
  429000   -429.13438    9011.1845 1.4214226e+11    18695.668     597.0948     28.79057   -1055.0198            0   0.10740135    26.540779    5251.1647 
  430000   -428.00564    8809.8877 1.5614103e+11    18695.668    582.47019    32.947127    -1043.423            0   0.10740135    26.540779    5311.4352 
  431000   -428.89557    9033.9835 1.5367333e+11    18695.668    583.99073    32.135779   -1045.0221            0   0.10740135    26.540779     5458.407 
  432000   -428.34863    8955.2879 1.4917352e+11    18695.668    591.54999    30.771837   -1050.6705            0   0.10740135    26.540779    5265.9416 
  433000   -428.12293    8944.2879 1.5124732e+11    18695.668    585.07201    31.866615   -1045.0615            0   0.10740135    26.540779    5253.6698 
  434000   -427.62626    8876.1891 1.4893338e+11    18695.668    591.01957    31.260567   -1049.9064            0   0.10740135    26.540779    5349.2409 
  435000   -427.90176    8970.8046 1.512621e+11    18695.668    588.72885    31.339738   -1047.9703            0   0.10740135    26.540779    5387.2046 
  436000   -427.53277    8929.6107 1.5098277e+11    18695.668     587.2809    31.269495   -1046.0832            0   0.10740135    26.540779    5315.0317 
  437000   -427.89347    9042.1799 1.5418929e+11    18695.668     589.0181    31.278648   -1048.1902            0   0.10740135    26.540779    5405.2693 
  438000   -426.78021     8844.148 1.4417771e+11    18695.668    592.11536    30.798043   -1049.6936            0   0.10740135    26.540779     5274.845 
  439000   -428.73071    9291.7302 1.5130984e+11    18695.668    586.02979    30.985511    -1045.746            0   0.10740135    26.540779    5436.2643 
  440000   -428.40649    9259.9707 1.5964251e+11    18695.668    582.37343    31.839535   -1042.6195            0   0.10740135    26.540779    5538.4185 
  441000   -427.49755    9104.9943 1.4543282e+11    18695.668    594.30179    30.410849   -1052.2102            0   0.10740135    26.540779    5394.2954 
  442000   -427.77882    9200.8252 1.4899528e+11    18695.668    586.04387    31.950826   -1045.7735            0   0.10740135    26.540779    5434.5636 
  443000   -427.29504    9135.4425 1.5516063e+11    18695.668    583.18332    32.254789   -1042.7332            0   0.10740135    26.540779    5616.0878 
  444000   -427.39116    9192.2585 1.5422857e+11    18695.668    590.95629     31.79694   -1050.1444            0   0.10740135    26.540779    5610.7062 
  445000   -426.49693    9040.3814 1.5224235e+11    18695.668    586.88893    32.556667   -1045.9425            0   0.10740135    26.540779    5451.7323 
  446000   -426.59607     9097.836 1.5363541e+11    18695.668    584.08874    32.499199    -1043.184            0   0.10740135    26.540779     5502.854 
  447000   -427.56056    9337.6371 1.4961563e+11    18695.668    588.82009    31.386061   -1047.7667            0   0.10740135    26.540779     5556.844 
  448000   -426.39696    9128.9982 1.5232748e+11    18695.668     591.4159    32.133757   -1049.9466            0   0.10740135    26.540779    5351.7943 
  449000   -426.84867     9260.747 1.5509973e+11    18695.668    589.49986    32.083175   -1048.4317            0   0.10740135    26.540779    5584.3927 
  450000   -426.29175    9179.9503 1.5230361e+11    18695.668    587.86669    32.141686   -1046.3001            0   0.10740135    26.540779    5428.5101 
  451000   -426.31358    9221.1124 1.5377481e+11    18695.668    588.36768    32.397428   -1047.0787            0   0.10740135    26.540779    5556.2629 
  452000   -425.83505    9156.8352 1.5284993e+11    18695.668    590.32483    31.674664   -1047.8345            0   0.10740135    26.540779    5471.7629 
  453000   -426.96902    9432.3507 1.5484822e+11    18695.668    589.43481    32.423587   -1048.8274            0   0.10740135    26.540779      5709.78 
  454000   -426.25399    9318.2391 1.5644587e+11    18695.668    584.43155    33.006878   -1043.6924            0   0.10740135    26.540779    5609.0709 
  455000   -427.13976    9541.4547 1.5291889e+11    18695.668     590.6421    31.257295   -1049.0392            0   0.10740135    26.540779    5748.7075 
  456000    -426.0617    9350.8413 1.5110371e+11    18695.668    587.67594    31.417815   -1045.1555            0   0.10740135    26.540779    5622.2961 
  457000   -426.74564    9531.5239 1.5718646e+11    18695.668    581.86695    33.152317   -1041.7649            0   0.10740135    26.540779    5698.5239 
  458000    -425.3108    9265.7276 1.5666803e+11    18695.668    584.44259    32.961259   -1042.7146            0   0.10740135    26.540779    5404.6605 
  459000   -425.85531     9417.031 1.5253523e+11    18695.668    587.79162    31.980452   -1045.6274            0   0.10740135    26.540779    5548.7975 
  460000    -425.9879    9481.5322 1.5485003e+11    18695.668    592.16061     32.17238   -1050.3209            0   0.10740135    26.540779    5681.6668 
  461000   -425.50169    9415.6358 1.5732884e+11    18695.668    592.07087     32.14297   -1049.7155            0   0.10740135    26.540779    5616.1607 
  462000   -426.06676    9571.2731  1.49406e+11    18695.668    588.51602    31.371452   -1045.9542            0   0.10740135    26.540779    5680.4484 
  463000   -425.59919    9509.3064 1.5824264e+11    18695.668    587.37697    32.737525   -1045.7137            0   0.10740135    26.540779    5762.0629 
  464000   -425.17921    9457.3659 1.550527e+11    18695.668     588.3377    32.975402   -1046.4923            0   0.10740135    26.540779    5806.2057 
  465000   -425.12212    9481.8966 1.5235329e+11    18695.668    588.98909    32.253001   -1046.3642            0   0.10740135    26.540779     5665.165 
  466000   -425.22742     9540.646 1.5758988e+11    18695.668    589.89909    33.002963   -1048.1295            0   0.10740135    26.540779    5665.1946 
  467000    -424.9025    9508.7397 1.5456582e+11    18695.668    589.38047    32.437969   -1046.7209            0   0.10740135    26.540779    5876.9941 
  468000   -424.33433    9425.5713 1.602549e+11    18695.668    585.66442    33.770409   -1043.7692            0   0.10740135    26.540779    5766.3051 
  469000   -426.24977    9865.7652 1.5278169e+11    18695.668    592.54351    31.152256   -1049.9455            0   0.10740135    26.540779    5864.4928 
[...]
 5711000   -11.376734     114094.6 1.0203018e+12    18695.668    326.51835    303.95244   -641.84752            0   0.10740135    26.540779      45872.4 
 5712000   -8.3510642    113493.57 1.0255305e+12    18695.668    324.85947    305.03228   -638.24282            0   0.10740135    26.540779    46712.182 
 5713000   -11.917451    114281.66 1.0194925e+12    18695.668    317.52406    305.85242   -635.29393            0   0.10740135    26.540779    45876.405 
 5714000   -11.079926    114141.73 1.0183852e+12    18695.668    317.58385    305.30377   -633.96755            0   0.10740135    26.540779    48213.698 
 5715000    -16.41335    115302.19 1.0256759e+12    18695.668     327.1189    301.22381   -644.75607            0   0.10740135    26.540779    47310.952 
 5716000   -20.226996    116142.39  1.01348e+12    18695.668    325.11475    300.95686    -646.2986            0   0.10740135    26.540779    49442.684 
 5717000   -16.101992     115309.7 1.0164613e+12    18695.668     323.5236    302.32097   -641.94656            0   0.10740135    26.540779    49681.926 
 5718000   -23.531404    116911.85 1.0151173e+12    18695.668    329.61338    294.94667   -648.09146            0   0.10740135    26.540779    48694.483 
 5719000   -11.057148    114319.75 1.0186908e+12    18695.668    324.77871    308.31042   -644.14628            0   0.10740135    26.540779    46574.788 
 5720000   -15.208672    115231.13 1.0211535e+12    18695.668    319.46358     306.5287   -641.20095            0   0.10740135    26.540779    48217.418 
 5721000   -13.484619     114904.4 1.0047327e+12    18695.668    340.12245    294.17514    -647.7822            0   0.10740135    26.540779    47508.034 
 5722000   -6.6039517    113491.01 1.0304291e+12    18695.668    315.68896    314.48578   -636.77869            0   0.10740135    26.540779    47435.511 
 5723000   -11.335677    114524.68 1.0176273e+12    18695.668    338.53392    295.77515   -645.64475            0   0.10740135    26.540779    47462.515 
 5724000    -9.768368    114230.96 1.0412463e+12    18695.668     313.1922    320.16935   -643.12993            0   0.10740135    26.540779    46560.608 
 5725000   -4.9937292    113261.38 1.0220155e+12    18695.668    319.90038     313.4213    -638.3154            0   0.10740135    26.540779    46384.649 
 5726000   -13.180931    115023.21 1.0286993e+12    18695.668    317.32019    309.22225   -639.72337            0   0.10740135    26.540779    46461.694 
 5727000    2.2433485    111809.47 1.0342375e+12    18695.668    317.18241    319.02936   -633.96842            0   0.10740135    26.540779    46147.287 
 5728000   -4.0243371     113166.8 1.0303678e+12    18695.668    317.92507    313.23086   -635.18027            0   0.10740135    26.540779    48407.537 
 5729000   -4.2348003    113247.72 1.0194425e+12    18695.668    327.25894    307.90138   -639.39512            0   0.10740135    26.540779    48190.664 
 5730000   -17.048753     115984.5 1.0254929e+12    18695.668    326.12659    303.73257   -646.90791            0   0.10740135    26.540779    49147.449 
 5731000     -8.32677    114183.11 1.0191564e+12    18695.668    326.40311     306.8847   -641.61458            0   0.10740135    26.540779    48800.149 
 5732000   -9.1746843    114398.35 1.0394444e+12    18695.668    308.41364    314.85236   -632.44068            0   0.10740135    26.540779    48091.534 
 5733000   -10.111835    114632.39 1.0071561e+12    18695.668     328.5962     301.2472   -639.95524            0   0.10740135    26.540779    49342.318 
 5734000   -5.7079951    113740.95 1.0453374e+12    18695.668    312.45161    318.06178   -636.22139            0   0.10740135    26.540779    47556.543 
 5735000   -12.966737    115307.13 1.0235864e+12    18695.668    318.47788    306.54713   -637.99175            0   0.10740135    26.540779     48068.98 
 5736000   -4.0689876    113468.69 1.0135265e+12    18695.668    325.92702    309.71705   -639.71306            0   0.10740135    26.540779    46779.592 
 5737000   -5.7929398    113868.54 1.0384184e+12    18695.668    309.66718    320.55404   -636.01416            0   0.10740135    26.540779    46931.693 
 5738000   -15.711351    115995.16 1.0124588e+12    18695.668    328.62342    299.11016   -643.44492            0   0.10740135    26.540779    47430.235 
 5739000   -12.900004    115439.31 1.0464529e+12    18695.668    311.23028    312.42916   -636.55945            0   0.10740135    26.540779    48232.143 
 5740000   -19.949504    116961.38 1.0249466e+12    18695.668    323.76093    301.41681   -645.12724            0   0.10740135    26.540779    48532.002 
 5741000   -14.003075    115744.88 1.0389574e+12    18695.668    309.33471    310.43238   -633.77016            0   0.10740135    26.540779     48592.97 
 5742000   -13.674919    115712.29 1.0309594e+12    18695.668    334.16526    301.70527   -649.54544            0   0.10740135    26.540779    50199.011 
 5743000   -12.378479    115475.65 1.0284258e+12    18695.668     318.9113    309.73198   -641.02176            0   0.10740135    26.540779    50403.741 
 5744000   -16.906297    116466.34 1.0309921e+12    18695.668    324.97592    303.47911   -645.36134            0   0.10740135    26.540779     47847.34 
 5745000   -13.622779    115810.98 1.0247676e+12    18695.668    315.19202    307.01904   -635.83383            0   0.10740135    26.540779    47799.814 
 5746000   -12.498071    115610.54 1.0280636e+12    18695.668    318.16608     303.6359   -634.30006            0   0.10740135    26.540779    48834.268 
 5747000   -16.712969    116535.28 1.0293498e+12    18695.668    325.45345    302.00099   -644.16741            0   0.10740135    26.540779    47445.137 
 5748000    -10.10091    115178.51 1.0298428e+12    18695.668    322.42264    308.02345     -640.547            0   0.10740135    26.540779    47956.468 
 5749000   -12.249912    115667.92 1.0216269e+12    18695.668    329.52256    302.07178   -643.84425            0   0.10740135    26.540779    47264.904 
 5750000   -8.3999094    114893.18 1.0204871e+12    18695.668    335.06186     300.1167   -643.57847            0   0.10740135    26.540779    48669.117 
 5751000    -11.35147    115551.72 1.0407318e+12    18695.668    321.76647    310.80319   -643.92112            0   0.10740135    26.540779    47441.213 
 5752000   -1.5801941    113529.22 1.0322518e+12    18695.668    316.85195    315.80182   -634.23397            0   0.10740135    26.540779    47165.713 
 5753000   -6.2324631    114546.14 1.0312086e+12    18695.668    323.42255    306.97158    -636.6266            0   0.10740135    26.540779     48714.97 
 5754000   -4.6881866    114257.27 1.0357404e+12    18695.668    316.97743    314.45388   -636.11949            0   0.10740135    26.540779    47103.637 
 5755000   -7.3569244    114856.21 1.0433279e+12    18695.668    314.34964    315.69806   -637.40462            0   0.10740135    26.540779    47876.937 
 5756000   -17.764908    117086.02 1.0309808e+12    18695.668     321.4428    301.58799    -640.7957            0   0.10740135    26.540779    49155.552 
 5757000   -6.2897254    114704.44 1.0208031e+12    18695.668    328.07045    302.65056   -637.01073            0   0.10740135    26.540779    48380.169 
 5758000   -11.213728    115778.63 1.0307048e+12    18695.668    329.25196    303.29821    -643.7639            0   0.10740135    26.540779    49148.685 
 5759000   -6.2056126    114759.84 1.0333794e+12    18695.668    310.11035    313.12145   -629.43742            0   0.10740135    26.540779    47763.578 
 5760000   -17.656009     117209.3 1.0230561e+12    18695.668    332.48996    298.53739   -648.68336            0   0.10740135    26.540779    49336.713 
 5761000   -3.9672292    114361.28 1.041495e+12    18695.668    302.38488    318.83714   -625.18925            0   0.10740135    26.540779    48001.624 
 5762000  -0.33530008    113632.49 1.0346029e+12    18695.668    319.68502    307.74749   -627.76781            0   0.10740135    26.540779    46313.341 
 5763000   -5.8377873    114828.57 1.0452572e+12    18695.668    313.17718    310.37898   -629.39395            0   0.10740135    26.540779    47892.105 
 5764000  -0.07548905    113650.86 1.0366105e+12    18695.668    321.79929    310.66824   -632.54302            0   0.10740135    26.540779    45650.618 
 5765000   0.83809718    113494.91 1.0309359e+12    18695.668    316.21974    312.02845    -627.4101            0   0.10740135    26.540779    45957.599 
 5766000   -4.2622877    114606.26 1.0300516e+12    18695.668    323.71611    303.90908   -631.88747            0   0.10740135    26.540779    47606.542 
 5767000   -11.255624    116116.49 1.0294553e+12    18695.668    329.25553    297.74393   -638.25509            0   0.10740135    26.540779    48696.052 
 5768000    2.2893343    113298.79 1.0319644e+12    18695.668    316.24839    310.87446   -624.83351            0   0.10740135    26.540779    48652.693 
 5769000   -15.161985     117012.8 1.025804e+12    18695.668    321.24728    298.49078   -634.90005            0   0.10740135    26.540779    48532.145 
 5770000  -0.23898441    113904.69 1.0484453e+12    18695.668    305.09722    316.85239    -622.1886            0   0.10740135    26.540779     46146.58 
 5771000   -9.5269085    115898.47 1.0188383e+12    18695.668    332.69808    296.34701     -638.572            0   0.10740135    26.540779    47799.138 
 5772000    2.5110856     113398.3 1.0359908e+12    18695.668    315.77896    309.72619   -622.99406            0   0.10740135    26.540779    47692.315 
 5773000   0.42394368    113874.67 1.0219371e+12    18695.668    319.52961    307.17089   -626.27656            0   0.10740135    26.540779    48358.716 
 5774000    -4.638354    114977.99 1.0362631e+12    18695.668    314.97151    306.43184    -626.0417            0   0.10740135    26.540779    47431.768 
 5775000   -11.159434    116388.73 1.0302192e+12    18695.668    324.66804    297.74228   -633.56976            0   0.10740135    26.540779    49171.025 
 5776000       -13.71    116962.76 1.0326382e+12    18695.668    323.84008    299.90991      -637.46            0   0.10740135    26.540779    49371.394 
 5777000   -10.397458    116301.27 1.0443405e+12    18695.668    321.13113    298.85856   -630.38715            0   0.10740135    26.540779    47359.617 
 5778000  -0.83102327    114321.92 1.0337062e+12    18695.668     317.4549    303.25217   -621.53809            0   0.10740135    26.540779     47131.27 
 5779000   -5.3463554    115309.99 1.0432202e+12    18695.668    314.21172    307.00268   -626.56075            0   0.10740135    26.540779    48086.842 
 5780000   -9.0449452    116125.94 1.0396705e+12    18695.668    319.66646    300.15383   -628.86523            0   0.10740135    26.540779    48955.732 
 5781000    5.1198966     113177.6 1.0441201e+12    18695.668    312.96508    315.47547   -623.32066            0   0.10740135    26.540779    48665.851 
 5782000    7.8249557    112644.13 1.0347868e+12    18695.668    310.83476    313.28866   -616.29846            0   0.10740135    26.540779    46510.498 
 5783000   0.16291972    114295.29 1.0496338e+12    18695.668    314.45597    309.09536   -623.38842            0   0.10740135    26.540779    46729.355 
 5784000   -8.4018712    116136.68 1.0409045e+12    18695.668    322.43046    297.20896   -628.04129            0   0.10740135    26.540779    48447.482 
 5785000   -14.318211    117419.97 1.0481688e+12    18695.668    324.49172    295.65372   -634.46365            0   0.10740135    26.540779    48499.878 
 5786000     6.306865    113110.28 1.0441747e+12    18695.668    309.34986    308.04116   -611.08416            0   0.10740135    26.540779    46246.213 
 5787000    1.5145759     114156.7 1.0423914e+12    18695.668    306.45298      307.087    -612.0254            0   0.10740135    26.540779    47432.035 
 5788000    5.3934394    113375.89 1.047317e+12    18695.668    315.95402    310.79735   -621.35793            0   0.10740135    26.540779    47945.114 
 5789000  -0.04004441    114557.42 1.034572e+12    18695.668    326.03395    299.23507   -625.30907            0   0.10740135    26.540779    48081.759 
 5790000   -2.4927823    115110.84 1.0471722e+12    18695.668    314.12356    308.38183   -624.99817            0   0.10740135    26.540779    48178.837 
 5791000   0.03895619     114613.9 1.0461256e+12    18695.668    325.42646    301.57171   -626.95922            0   0.10740135    26.540779    46891.187 
 5792000   -4.8319361    115676.89 1.0473313e+12    18695.668    321.92639    297.11321   -623.87154            0   0.10740135    26.540779    47616.153 
 5793000    2.1651429    114238.98 1.0383272e+12    18695.668    325.46762    304.00422    -627.3067            0   0.10740135    26.540779    47103.414 
 5794000    7.0998193    113235.68 1.0348001e+12    18695.668    321.67217    307.65752   -622.22988            0   0.10740135    26.540779    47572.032 
 5795000   -3.2601052    115455.34 1.0285667e+12    18695.668    328.58258    296.62326   -628.46594            0   0.10740135    26.540779    47744.908 
 5796000   -1.0860701    115033.77 1.0361874e+12    18695.668    321.52873    298.36009   -620.97489            0   0.10740135    26.540779    47351.715 
 5797000  -0.14561266    114872.16 1.0426385e+12    18695.668    315.05793    303.42374   -618.62729            0   0.10740135    26.540779    48273.164 
 5798000    6.4494024    113518.97 1.027041e+12    18695.668    320.37235    306.75737   -620.68032            0   0.10740135    26.540779    48456.078 
 5799000   -5.7439458       116125 1.0480677e+12    18695.668    313.07087    304.60943   -623.42425            0   0.10740135    26.540779    49303.751 
 5800000   -4.9600353    115996.38 1.0420917e+12    18695.668    319.89696     297.9048    -622.7618            0   0.10740135    26.540779    48467.762 
 5801000    -1.619167    115328.92 1.0411906e+12    18695.668     321.2988    301.92546   -624.84343            0   0.10740135    26.540779    48658.651 
 5802000   -2.0298874    115452.03 1.0257176e+12    18695.668    324.05952    302.28626   -628.37568            0   0.10740135    26.540779     48754.83 
 5803000    2.2815561    114580.06 1.0431391e+12    18695.668    322.73622     303.5876   -624.04227            0   0.10740135    26.540779    48441.007 
 5804000   -2.3551226    115593.69 1.0484505e+12    18695.668    325.43831    302.73318   -630.52661            0   0.10740135    26.540779     48170.19 
 5805000    2.8761373    114527.89 1.0490817e+12    18695.668    309.77019    311.03426   -617.92831            0   0.10740135    26.540779    46527.403 
 5806000   -7.5943734    116770.85 1.0386678e+12    18695.668    332.59555    297.96447   -638.15439            0   0.10740135    26.540779     48207.47 
 5807000   -6.1315051    116499.16 1.0484222e+12    18695.668    317.13125    302.73595    -625.9987            0   0.10740135    26.540779     49409.19 
 5808000    -3.570529    115996.06 1.0400832e+12    18695.668     321.6926    303.46015   -628.72328            0   0.10740135    26.540779    49078.669 
 5809000   -7.5166696    116864.17 1.0381083e+12    18695.668    320.86117    299.19544   -627.57328            0   0.10740135    26.540779     49637.19 
 5810000  -0.85549794    115497.05 1.0335591e+12    18695.668    327.39405    300.24414   -628.49369            0   0.10740135    26.540779    48833.713 
 5811000   -4.7814904    116360.93 1.0526677e+12    18695.668    315.77999     302.2516   -622.81308            0   0.10740135    26.540779    48967.383 
 5812000   -4.2112518    116277.33 1.0433252e+12    18695.668    323.48718    304.17073   -631.86916            0   0.10740135    26.540779    49175.858 
 5813000    3.8548803    114614.12 1.0551518e+12    18695.668     316.8696    306.65982   -619.67454            0   0.10740135    26.540779    46796.711 
 5814000    2.4101096    114955.14 1.0475797e+12    18695.668    317.57064    307.86194   -623.02247            0   0.10740135    26.540779    47238.494 
 5815000     8.734567    113658.98 1.0379364e+12    18695.668    320.43154     310.5687   -622.26567            0   0.10740135    26.540779    46751.452 
 5816000   -4.1883769    116418.74 1.0476724e+12    18695.668    321.22357    300.78238   -626.19433            0   0.10740135    26.540779    47707.862 
 5817000     1.628173     115229.6 1.0505873e+12    18695.668    317.48899    308.64792   -624.50873            0   0.10740135    26.540779    46102.911 
 5818000     2.242997     115136.6 1.0551445e+12    18695.668    306.92498    313.60259   -618.28458            0   0.10740135    26.540779    46147.541 
 5819000   -7.7762417    117284.46 1.0534737e+12    18695.668    322.74473    300.58738   -631.10835            0   0.10740135    26.540779    49664.054 
 5820000    7.0062855    114205.96 1.0467089e+12    18695.668    315.57801    311.34054   -619.91226            0   0.10740135    26.540779    47565.673 
 5821000  -0.54048547    115832.84 1.0246675e+12    18695.668    334.83469    299.09722   -634.47239            0   0.10740135    26.540779    48253.763 
 5822000   -5.7128165    116959.33 1.0553927e+12    18695.668     319.8834    309.56091   -635.15712            0   0.10740135    26.540779     46661.88 
 5823000    3.1905551    115119.73 1.0385427e+12    18695.668    321.37057    304.27342   -622.45344            0   0.10740135    26.540779    48579.215 
 5824000    3.7512213    115038.14 1.0506599e+12    18695.668    310.24993    315.86539    -622.3641            0   0.10740135    26.540779    48198.395 
 5825000    5.5204712    114701.87 1.0477189e+12    18695.668    305.91598    314.84494   -615.24045            0   0.10740135    26.540779    47531.638 
 5826000   -5.6735605    117097.31 1.0465774e+12    18695.668     316.4558    305.89328   -628.02264            0   0.10740135    26.540779    48707.215 
 5827000    1.0796741     115710.8 1.0470269e+12    18695.668    309.64877    311.69033   -620.25943            0   0.10740135    26.540779    47365.189 
 5828000    1.8963849    115575.26 1.0444954e+12    18695.668    316.03126    311.55802   -625.69289            0   0.10740135    26.540779    46489.911 
 5829000   -2.0822605    116450.21 1.0447847e+12    18695.668    315.41322    312.51194   -630.00741            0   0.10740135    26.540779    47825.052 
 5830000    4.3156607    115138.57 1.0534365e+12    18695.668    311.60734    311.68342    -618.9751            0   0.10740135    26.540779    47373.955 
 5831000   -1.5545995    116412.15 1.0416675e+12    18695.668     319.0628    305.78427   -626.40167            0   0.10740135    26.540779    48139.568 
 5832000   -1.5629067    116450.45 1.058841e+12    18695.668     312.7189    314.80538   -629.08719            0   0.10740135    26.540779     48746.87 
 5833000    1.4886833    115843.96 1.0437041e+12    18695.668    321.67643    310.85496   -631.04271            0   0.10740135    26.540779    47382.767 
 5834000   -4.5342674    117149.73 1.0600513e+12    18695.668    317.25139    309.56437   -631.35003            0   0.10740135    26.540779    48554.086 
 5835000   -6.9108633     117687.1 1.0458096e+12    18695.668    313.40855    307.25748   -627.57689            0   0.10740135    26.540779    47615.053 
 5836000   -1.3389479    116549.51 1.062305e+12    18695.668    306.23218    317.65991   -625.23103            0   0.10740135    26.540779    49261.407 
 5837000   -3.0701939    116950.89 1.0456561e+12    18695.668    320.53737    301.78039   -625.38796            0   0.10740135    26.540779    46210.238 
 5838000    3.6853159    115563.88 1.0660706e+12    18695.668    308.09654    315.85071   -620.26194            0   0.10740135    26.540779    46737.144 
 5839000   0.28219719    116317.59 1.0400806e+12    18695.668     325.7088    305.60527   -631.03188            0   0.10740135    26.540779    49297.652 
 584